TITLE = "Visualization of the volumetric solution"
VARIABLES = "x","y","Density[0]","Density[1]","Momentum_x","Momentum_y","Energy","Electronic Energy","Total Density","Pressure","Temperature","Tve","Mach","C<sub>p</sub>"
ZONE NODES= 121, ELEMENTS= 100, DATAPACKING=POINT, ZONETYPE=FEQUADRILATERAL
0.000000e+00	0.000000e+00	1.115334e+00	1.126600e-02	2.001037e+03	3.677261e-02	2.057943e+06	1.312745e+01	1.126600e+00	1.013136e+05	2.999912e+02	3.000000e+02	5.000088e+00	-6.426478e-06	
0.000000e+00	1.000000e+00	6.666965e-01	6.734308e-03	1.212712e+03	6.369751e-15	1.238667e+06	7.847001e+00	6.734308e-01	5.203926e+04	2.577796e+02	3.000000e+02	5.468735e+00	-2.773175e-02	
1.000000e+00	0.000000e+00	1.101783e+00	1.112912e-02	1.977727e+03	2.784452e+00	2.033452e+06	1.296796e+01	1.112912e+00	9.956995e+04	2.984543e+02	3.000000e+02	5.015492e+00	-9.875202e-04	
1.000000e+00	1.000000e+00	2.209224e+00	2.231539e-02	3.514093e+03	-2.287823e+02	3.863054e+06	2.706685e+01	2.231539e+00	4.136207e+05	6.183127e+02	3.010630e+02	3.094351e+00	1.757203e-01	
0.000000e+00	1.000000e-01	1.114944e+00	1.126206e-02	2.000357e+03	1.541234e-01	2.057233e+06	1.312286e+01	1.126206e+00	1.012676e+05	2.999600e+02	3.000000e+02	5.000399e+00	-3.227908e-05	
0.000000e+00	2.000000e-01	1.112132e+00	1.123366e-02	1.995432e+03	8.629675e-01	2.052107e+06	1.308977e+01	1.123366e+00	1.009516e+05	2.997798e+02	3.000000e+02	5.002201e+00	-2.101184e-04	
0.000000e+00	3.000000e-01	1.095941e+00	1.107011e-02	1.966988e+03	3.269249e+00	2.022542e+06	1.289920e+01	1.107011e+00	9.917108e+04	2.988432e+02	3.000000e+02	5.011584e+00	-1.211954e-03	
0.000000e+00	4.000000e-01	1.015349e+00	1.025606e-02	1.825362e+03	7.545624e+00	1.875361e+06	1.195064e+01	1.025606e+00	9.032854e+04	2.938022e+02	3.000000e+02	5.062807e+00	-6.187408e-03	
0.000000e+00	5.000000e-01	3.405652e-01	3.440053e-03	6.279568e+02	8.361689e-02	6.371566e+05	4.008444e+00	3.440053e-01	2.216853e+04	2.149722e+02	3.000000e+02	6.070438e+00	-4.453919e-02	
0.000000e+00	6.000000e-01	2.689255e-01	2.716419e-03	4.974528e+02	5.639749e+00	5.039795e+05	3.165246e+00	2.716419e-01	1.665303e+04	2.045064e+02	3.000000e+02	6.244190e+00	-4.764262e-02	
0.000000e+00	7.000000e-01	5.419476e-01	5.474218e-03	9.762513e+02	4.230756e+01	1.002449e+06	6.378709e+00	5.474218e-01	4.674670e+04	2.848651e+02	3.000000e+02	5.156723e+00	-3.070973e-02	
0.000000e+00	8.000000e-01	1.439229e+00	1.453767e-02	2.409302e+03	-6.085415e+01	2.570640e+06	1.696811e+01	1.453767e+00	2.156122e+05	4.947537e+02	3.000443e+02	3.634017e+00	6.430632e-02	
0.000000e+00	9.000000e-01	8.563825e-01	8.650328e-03	1.543343e+03	4.848730e+01	1.584060e+06	1.007960e+01	8.650328e-01	7.387393e+04	2.848846e+02	3.000000e+02	5.156514e+00	-1.544597e-02	
8.437306e-02	1.072061e+00	1.006914e+00	1.017085e-02	1.810535e+03	2.929813e+01	1.860067e+06	1.185136e+01	1.017085e+00	8.929230e+04	2.928647e+02	3.000000e+02	5.072469e+00	-6.770474e-03	
1.789802e-01	1.130037e+00	1.074197e+00	1.085048e-02	1.929289e+03	1.357015e+01	1.983115e+06	1.264328e+01	1.085048e+00	9.650285e+04	2.966891e+02	3.000000e+02	5.033323e+00	-2.713294e-03	
2.814920e-01	1.172499e+00	1.101528e+00	1.112654e-02	1.977212e+03	4.906612e+00	2.032955e+06	1.296496e+01	1.112654e+00	9.957408e+04	2.985358e+02	3.000000e+02	5.014673e+00	-9.851978e-04	
3.893841e-01	1.198401e+00	1.103683e+00	1.114831e-02	1.980986e+03	2.607380e+00	2.036881e+06	1.299032e+01	1.114831e+00	9.981972e+04	2.986879e+02	3.000000e+02	5.013144e+00	-8.469788e-04	
5.000000e-01	1.207107e+00	1.107217e+00	1.118401e-02	1.987042e+03	2.134847e+00	2.043256e+06	1.303191e+01	1.118401e+00	1.002859e+05	2.991250e+02	3.000000e+02	5.008757e+00	-5.846948e-04	
6.106159e-01	1.198401e+00	1.110541e+00	1.121758e-02	1.992753e+03	1.451505e+00	2.049260e+06	1.307104e+01	1.121758e+00	1.007172e+05	2.995122e+02	3.000000e+02	5.004877e+00	-3.420184e-04	
7.185080e-01	1.172499e+00	1.113426e+00	1.124673e-02	1.997733e+03	6.586103e-01	2.054483e+06	1.310500e+01	1.124673e+00	1.010794e+05	2.998107e+02	3.000000e+02	5.001892e+00	-1.381734e-04	
8.210198e-01	1.130037e+00	8.245271e-01	8.328557e-03	1.486607e+03	2.332705e+01	1.525199e+06	9.704664e+00	8.328557e-01	7.106357e+04	2.846346e+02	3.000000e+02	5.159201e+00	-1.702729e-02	
9.156269e-01	1.072061e+00	1.026341e+00	1.036708e-02	1.843863e+03	1.624218e+01	1.895047e+06	1.208001e+01	1.036708e+00	9.192174e+04	2.957823e+02	3.000000e+02	5.042541e+00	-5.290956e-03	
1.000000e+00	9.000000e-01	1.091391e+00	1.102415e-02	1.958990e+03	6.435380e+00	2.014235e+06	1.284564e+01	1.102415e+00	9.866890e+04	2.985696e+02	3.000000e+02	5.014333e+00	-1.494516e-03	
1.000000e+00	8.000000e-01	1.109948e+00	1.121160e-02	1.991631e+03	1.914331e+00	2.048137e+06	1.306406e+01	1.121160e+00	1.006928e+05	2.995997e+02	3.000000e+02	5.004002e+00	-3.557276e-04	
1.000000e+00	7.000000e-01	7.727908e-01	7.805967e-03	1.394473e+03	4.185959e+01	1.430320e+06	9.095728e+00	7.805967e-01	6.578219e+04	2.811202e+02	3.000000e+02	5.197318e+00	-1.999897e-02	
1.000000e+00	6.000000e-01	9.956756e-01	1.005733e-02	1.789827e+03	2.768945e+01	1.839040e+06	1.171908e+01	1.005733e+00	8.856161e+04	2.937468e+02	3.000000e+02	5.063377e+00	-7.181614e-03	
1.000000e+00	5.000000e-01	1.078178e+00	1.089069e-02	1.935880e+03	1.177165e+01	1.990172e+06	1.269013e+01	1.089069e+00	9.715227e+04	2.975829e+02	3.000000e+02	5.024277e+00	-2.347883e-03	
1.000000e+00	4.000000e-01	1.105649e+00	1.116817e-02	1.984165e+03	3.823158e+00	2.040332e+06	1.301346e+01	1.116817e+00	1.001748e+05	2.992176e+02	3.000000e+02	5.007828e+00	-6.471590e-04	
1.000000e+00	3.000000e-01	7.871414e-01	7.950924e-03	1.419870e+03	4.763574e+01	1.456707e+06	9.264635e+00	7.950924e-01	6.717775e+04	2.818502e+02	3.000000e+02	5.189346e+00	-1.921373e-02	
1.000000e+00	2.000000e-01	9.931509e-01	1.003183e-02	1.785785e+03	3.019360e+01	1.834652e+06	1.168936e+01	1.003183e+00	8.806175e+04	2.928314e+02	3.000000e+02	5.072813e+00	-7.462868e-03	
1.000000e+00	1.000000e-01	1.074010e+00	1.084858e-02	1.928876e+03	1.370580e+01	1.982730e+06	1.264107e+01	1.084858e+00	9.652458e+04	2.968078e+02	3.000000e+02	5.032120e+00	-2.701066e-03	
9.000000e-01	0.000000e+00	1.103200e+00	1.114343e-02	1.980027e+03	4.912491e+00	2.035945e+06	1.298463e+01	1.114343e+00	9.982034e+04	2.988206e+02	3.000000e+02	5.011811e+00	-8.466321e-04	
8.000000e-01	0.000000e+00	8.290282e-01	8.374023e-03	1.494606e+03	4.926744e+01	1.533787e+06	9.757642e+00	8.374023e-01	7.118904e+04	2.835890e+02	3.000000e+02	5.170471e+00	-1.695668e-02	
7.000000e-01	0.000000e+00	1.000696e+00	1.010804e-02	1.799414e+03	3.006372e+01	1.848619e+06	1.177817e+01	1.010804e+00	8.870230e+04	2.927374e+02	3.000000e+02	5.073785e+00	-7.102451e-03	
6.000000e-01	0.000000e+00	1.073978e+00	1.084826e-02	1.928840e+03	1.361672e+01	1.982682e+06	1.264070e+01	1.084826e+00	9.651110e+04	2.967751e+02	3.000000e+02	5.032451e+00	-2.708650e-03	
5.000000e-01	0.000000e+00	1.101901e+00	1.113031e-02	1.977861e+03	5.067776e+00	2.033632e+06	1.296935e+01	1.113031e+00	9.961801e+04	2.985664e+02	3.000000e+02	5.014365e+00	-9.604772e-04	
4.000000e-01	0.000000e+00	1.115427e+00	1.126693e-02	2.001197e+03	0.000000e+00	2.058111e+06	1.312854e+01	1.126693e+00	1.013250e+05	3.000000e+02	3.000000e+02	5.000000e+00	-1.637593e-17	
3.000000e-01	0.000000e+00	1.115427e+00	1.126693e-02	2.001197e+03	0.000000e+00	2.058111e+06	1.312854e+01	1.126693e+00	1.013250e+05	3.000000e+02	3.000000e+02	5.000000e+00	-1.637593e-17	
2.000000e-01	0.000000e+00	1.115427e+00	1.126693e-02	2.001197e+03	0.000000e+00	2.058111e+06	1.312854e+01	1.126693e+00	1.013250e+05	3.000000e+02	3.000000e+02	5.000000e+00	-1.637593e-17	
1.000000e-01	0.000000e+00	1.115427e+00	1.126693e-02	2.001197e+03	6.123870e-18	2.058111e+06	1.312854e+01	1.126693e+00	1.013250e+05	3.000000e+02	3.000000e+02	5.000000e+00	-1.637593e-17	
8.593576e-02	9.648553e-01	1.115427e+00	1.126693e-02	2.001197e+03	5.663751e-15	2.058111e+06	1.312854e+01	1.126693e+00	1.013250e+05	3.000000e+02	3.000000e+02	5.000000e+00	-2.456390e-17	
8.749845e-02	8.576491e-01	1.115427e+00	1.126693e-02	2.001197e+03	4.552355e-15	2.058111e+06	1.312854e+01	1.126693e+00	1.013250e+05	3.000000e+02	3.000000e+02	5.000000e+00	-1.637593e-17	
8.906114e-02	7.504430e-01	1.115427e+00	1.126693e-02	2.001197e+03	4.853618e-15	2.058111e+06	1.312854e+01	1.126693e+00	1.013250e+05	3.000000e+02	3.000000e+02	5.000000e+00	-2.456390e-17	
9.062384e-02	6.432368e-01	2.150672e-17	2.172396e-19	3.811508e-14	-2.320835e-18	3.943940e-11	2.531336e-16	2.172396e-17	2.190310e-12	3.363388e+02	3.000000e+02	4.664616e+00	-5.701283e-02	
9.218653e-02	5.360307e-01	1.115427e+00	1.126693e-02	2.001197e+03	0.000000e+00	2.058111e+06	1.312854e+01	1.126693e+00	1.013250e+05	3.000000e+02	3.000000e+02	5.000000e+00	-1.637593e-17	
9.374922e-02	4.288246e-01	1.115427e+00	1.126693e-02	2.001197e+03	0.000000e+00	2.058111e+06	1.312854e+01	1.126693e+00	1.013250e+05	3.000000e+02	3.000000e+02	5.000000e+00	-1.637593e-17	
9.531192e-02	3.216184e-01	1.115427e+00	1.126693e-02	2.001197e+03	-2.395216e-17	2.058111e+06	1.312854e+01	1.126693e+00	1.013250e+05	3.000000e+02	3.000000e+02	5.000000e+00	-1.637593e-17	
9.687461e-02	2.144123e-01	1.115427e+00	1.126693e-02	2.001197e+03	-4.277785e-18	2.058111e+06	1.312854e+01	1.126693e+00	1.013250e+05	3.000000e+02	3.000000e+02	5.000000e+00	-1.637593e-17	
9.843731e-02	1.072061e-01	1.115427e+00	1.126693e-02	2.001197e+03	1.813178e-17	2.058111e+06	1.312854e+01	1.126693e+00	1.013250e+05	3.000000e+02	3.000000e+02	5.000000e+00	-1.637593e-17	
1.810822e-01	1.017033e+00	1.115427e+00	1.126693e-02	2.001197e+03	0.000000e+00	2.058111e+06	1.312854e+01	1.126693e+00	1.013250e+05	3.000000e+02	3.000000e+02	5.000000e+00	-1.637593e-17	
1.831842e-01	9.040294e-01	1.115427e+00	1.126693e-02	2.001197e+03	0.000000e+00	2.058111e+06	1.312854e+01	1.126693e+00	1.013250e+05	3.000000e+02	3.000000e+02	5.000000e+00	-1.637593e-17	
1.852862e-01	7.910257e-01	3.087867e-316	4.940656e-324	2.519735e-322	0.000000e+00	5.533535e-322	5.533535e-322	3.087867e-316	3.825641e-311	4.174241e+02	1.259630e+02	-nan	-5.701283e-02	
1.873881e-01	6.780221e-01	1.115427e+00	1.126693e-02	2.001197e+03	0.000000e+00	2.058111e+06	1.312854e+01	1.126693e+00	1.013250e+05	3.000000e+02	3.000000e+02	5.000000e+00	-1.637593e-17	
1.894901e-01	5.650184e-01	1.115427e+00	1.126693e-02	2.001197e+03	0.000000e+00	2.058111e+06	1.312854e+01	1.126693e+00	1.013250e+05	3.000000e+02	3.000000e+02	5.000000e+00	-1.637593e-17	
1.915921e-01	4.520147e-01	3.087883e-316	1.976263e-323	4.325263e-315	0.000000e+00	0.000000e+00	4.340367e-320	3.087884e-316	3.824431e-311	4.172897e+02	1.501727e+02	-nan	-5.701283e-02	
1.936941e-01	3.390110e-01	6.191861e-17	6.254405e-19	1.110888e-13	0.000000e+00	1.142481e-10	7.287805e-16	6.254405e-17	5.624667e-12	3.000000e+02	3.000000e+02	5.000000e+00	-5.701283e-02	
1.957960e-01	2.260074e-01	1.115427e+00	1.126693e-02	2.001197e+03	0.000000e+00	2.058111e+06	1.312854e+01	1.126693e+00	1.013250e+05	3.000000e+02	3.000000e+02	5.000000e+00	-1.637593e-17	
1.978980e-01	1.130037e-01	1.547965e-16	1.563601e-18	2.777219e-13	0.000000e+00	2.856203e-10	1.821951e-15	1.563601e-16	1.406167e-11	3.000000e+02	3.000000e+02	5.000000e+00	-5.701283e-02	
2.833428e-01	1.055249e+00	1.115427e+00	1.126693e-02	2.001197e+03	-2.404614e-16	2.058111e+06	1.312854e+01	1.126693e+00	1.013250e+05	3.000000e+02	3.000000e+02	5.000000e+00	-1.637593e-17	
2.851936e-01	9.379988e-01	3.095930e-17	3.127203e-19	5.554438e-14	0.000000e+00	5.712405e-11	3.643903e-16	3.127203e-17	2.812334e-12	3.000000e+02	3.000000e+02	5.000000e+00	-5.701283e-02	
2.870444e-01	8.207490e-01	1.115427e+00	1.126693e-02	2.001197e+03	0.000000e+00	2.058111e+06	1.312854e+01	1.126693e+00	1.013250e+05	3.000000e+02	3.000000e+02	5.000000e+00	-1.637593e-17	
2.888952e-01	7.034991e-01	3.095930e-17	3.127203e-19	5.554438e-14	0.000000e+00	5.712405e-11	3.643903e-16	3.127203e-17	2.812334e-12	3.000000e+02	3.000000e+02	5.000000e+00	-5.701283e-02	
2.907460e-01	5.862493e-01	1.115427e+00	1.126693e-02	2.001197e+03	0.000000e+00	2.058111e+06	1.312854e+01	1.126693e+00	1.013250e+05	3.000000e+02	3.000000e+02	5.000000e+00	-1.637593e-17	
2.925968e-01	4.689994e-01	3.095930e-17	3.127203e-19	5.554438e-14	0.000000e+00	5.712405e-11	3.643903e-16	3.127203e-17	2.812334e-12	3.000000e+02	3.000000e+02	5.000000e+00	-5.701283e-02	
2.944476e-01	3.517496e-01	1.115427e+00	1.126693e-02	2.001197e+03	0.000000e+00	2.058111e+06	1.312854e+01	1.126693e+00	1.013250e+05	3.000000e+02	3.000000e+02	5.000000e+00	-1.637593e-17	
2.962984e-01	2.344997e-01	6.191861e-17	6.254405e-19	1.110888e-13	0.000000e+00	1.142481e-10	7.287805e-16	6.254405e-17	5.624667e-12	3.000000e+02	3.000000e+02	5.000000e+00	-5.701283e-02	
2.981492e-01	1.172499e-01	1.115427e+00	1.126693e-02	2.001197e+03	0.000000e+00	2.058111e+06	1.312854e+01	1.126693e+00	1.013250e+05	3.000000e+02	3.000000e+02	5.000000e+00	-1.637593e-17	
3.904457e-01	1.078561e+00	3.095930e-17	3.127203e-19	5.554438e-14	0.000000e+00	5.712405e-11	3.643903e-16	3.127203e-17	2.812334e-12	3.000000e+02	3.000000e+02	5.000000e+00	-5.701283e-02	
3.915073e-01	9.587209e-01	1.115427e+00	1.126693e-02	2.001197e+03	0.000000e+00	2.058111e+06	1.312854e+01	1.126693e+00	1.013250e+05	3.000000e+02	3.000000e+02	5.000000e+00	-1.637593e-17	
3.925689e-01	8.388808e-01	3.095930e-17	3.127203e-19	5.554438e-14	0.000000e+00	5.712405e-11	3.643903e-16	3.127203e-17	2.812334e-12	3.000000e+02	3.000000e+02	5.000000e+00	-5.701283e-02	
3.936305e-01	7.190407e-01	1.115427e+00	1.126693e-02	2.001197e+03	0.000000e+00	2.058111e+06	1.312854e+01	1.126693e+00	1.013250e+05	3.000000e+02	3.000000e+02	5.000000e+00	-1.637593e-17	
3.946921e-01	5.992006e-01	3.095930e-17	3.127203e-19	5.554438e-14	0.000000e+00	5.712405e-11	3.643903e-16	3.127203e-17	2.812334e-12	3.000000e+02	3.000000e+02	5.000000e+00	-5.701283e-02	
3.957537e-01	4.793604e-01	1.115427e+00	1.126693e-02	2.001197e+03	0.000000e+00	2.058111e+06	1.312854e+01	1.126693e+00	1.013250e+05	3.000000e+02	3.000000e+02	5.000000e+00	-1.637593e-17	
3.968152e-01	3.595203e-01	6.191861e-17	6.254405e-19	1.110888e-13	0.000000e+00	1.142481e-10	7.287805e-16	6.254405e-17	5.624667e-12	3.000000e+02	3.000000e+02	5.000000e+00	-5.701283e-02	
3.978768e-01	2.396802e-01	1.115427e+00	1.126693e-02	2.001197e+03	0.000000e+00	2.058111e+06	1.312854e+01	1.126693e+00	1.013250e+05	3.000000e+02	3.000000e+02	5.000000e+00	-1.637593e-17	
3.989384e-01	1.198401e-01	6.191861e-17	6.254405e-19	1.110888e-13	0.000000e+00	1.142481e-10	7.287805e-16	6.254405e-17	5.624667e-12	3.000000e+02	3.000000e+02	5.000000e+00	-5.701283e-02	
5.000000e-01	1.086396e+00	9.807907e-20	9.906977e-22	1.680899e-16	-1.311543e-17	1.769405e-13	1.154390e-18	9.906977e-20	1.244839e-14	4.191625e+02	3.000000e+02	4.052973e+00	-5.701283e-02	
5.000000e-01	9.656854e-01	3.088011e-316	4.940656e-324	3.621846e-93	0.000000e+00	5.533535e-322	5.533535e-322	3.088011e-316	2.749592e-311	3.000000e+02	3.000000e+02	-nan	-5.701283e-02	
5.000000e-01	8.449747e-01	0.000000e+00	0.000000e+00	0.000000e+00	0.000000e+00	0.000000e+00	0.000000e+00	0.000000e+00	0.000000e+00	3.000000e+02	3.000000e+02	-nan	-5.701283e-02	
5.000000e-01	7.242641e-01	1.115427e+00	1.126693e-02	2.001197e+03	0.000000e+00	2.058111e+06	1.312854e+01	1.126693e+00	1.013250e+05	3.000000e+02	3.000000e+02	5.000000e+00	-1.637593e-17	
5.000000e-01	6.035534e-01	1.115427e+00	1.126693e-02	2.001197e+03	0.000000e+00	2.058111e+06	1.312854e+01	1.126693e+00	1.013250e+05	3.000000e+02	3.000000e+02	5.000000e+00	-1.637593e-17	
5.000000e-01	4.828427e-01	1.115427e+00	1.126693e-02	2.001197e+03	0.000000e+00	2.058111e+06	1.312854e+01	1.126693e+00	1.013250e+05	3.000000e+02	3.000000e+02	5.000000e+00	-1.637593e-17	
5.000000e-01	3.621320e-01	0.000000e+00	0.000000e+00	0.000000e+00	0.000000e+00	0.000000e+00	0.000000e+00	0.000000e+00	0.000000e+00	3.000000e+02	3.000000e+02	-nan	-5.701283e-02	
5.000000e-01	2.414214e-01	1.115427e+00	1.126693e-02	2.001197e+03	0.000000e+00	2.058111e+06	1.312854e+01	1.126693e+00	1.013250e+05	3.000000e+02	3.000000e+02	5.000000e+00	-1.637593e-17	
5.000000e-01	1.207107e-01	1.115427e+00	1.126693e-02	2.001197e+03	0.000000e+00	2.058111e+06	1.312854e+01	1.126693e+00	1.013250e+05	3.000000e+02	3.000000e+02	5.000000e+00	-1.637593e-17	
6.095543e-01	1.078561e+00	1.115427e+00	1.126693e-02	2.001197e+03	0.000000e+00	2.058111e+06	1.312854e+01	1.126693e+00	1.013250e+05	3.000000e+02	3.000000e+02	5.000000e+00	-1.637593e-17	
6.084927e-01	9.587209e-01	0.000000e+00	0.000000e+00	0.000000e+00	0.000000e+00	0.000000e+00	0.000000e+00	0.000000e+00	0.000000e+00	3.000000e+02	3.000000e+02	-nan	-5.701283e-02	
6.074311e-01	8.388808e-01	1.115427e+00	1.126693e-02	2.001197e+03	0.000000e+00	2.058111e+06	1.312854e+01	1.126693e+00	1.013250e+05	3.000000e+02	3.000000e+02	5.000000e+00	-1.637593e-17	
6.063695e-01	7.190407e-01	1.115427e+00	1.126693e-02	2.001197e+03	0.000000e+00	2.058111e+06	1.312854e+01	1.126693e+00	1.013250e+05	3.000000e+02	3.000000e+02	5.000000e+00	-1.637593e-17	
6.053079e-01	5.992006e-01	1.115427e+00	1.126693e-02	2.001197e+03	0.000000e+00	2.058111e+06	1.312854e+01	1.126693e+00	1.013250e+05	3.000000e+02	3.000000e+02	5.000000e+00	-1.637593e-17	
6.042463e-01	4.793604e-01	3.095930e-17	3.127203e-19	5.554438e-14	0.000000e+00	5.712405e-11	3.643903e-16	3.127203e-17	2.812334e-12	3.000000e+02	3.000000e+02	5.000000e+00	-5.701283e-02	
6.031848e-01	3.595203e-01	1.115427e+00	1.126693e-02	2.001197e+03	0.000000e+00	2.058111e+06	1.312854e+01	1.126693e+00	1.013250e+05	3.000000e+02	3.000000e+02	5.000000e+00	-1.637593e-17	
6.021232e-01	2.396802e-01	1.115427e+00	1.126693e-02	2.001197e+03	0.000000e+00	2.058111e+06	1.312854e+01	1.126693e+00	1.013250e+05	3.000000e+02	3.000000e+02	5.000000e+00	-1.637593e-17	
6.010616e-01	1.198401e-01	1.115427e+00	1.126693e-02	2.001197e+03	2.408298e-15	2.058111e+06	1.312854e+01	1.126693e+00	1.013250e+05	3.000000e+02	3.000000e+02	5.000000e+00	-1.637593e-17	
7.166572e-01	1.055249e+00	1.115427e+00	1.126693e-02	2.001197e+03	0.000000e+00	2.058111e+06	1.312854e+01	1.126693e+00	1.013250e+05	3.000000e+02	3.000000e+02	5.000000e+00	-1.637593e-17	
7.148064e-01	9.379988e-01	1.115427e+00	1.126693e-02	2.001197e+03	0.000000e+00	2.058111e+06	1.312854e+01	1.126693e+00	1.013250e+05	3.000000e+02	3.000000e+02	5.000000e+00	-1.637593e-17	
7.129556e-01	8.207490e-01	1.115427e+00	1.126693e-02	2.001197e+03	0.000000e+00	2.058111e+06	1.312854e+01	1.126693e+00	1.013250e+05	3.000000e+02	3.000000e+02	5.000000e+00	-1.637593e-17	
7.111048e-01	7.034991e-01	1.115427e+00	1.126693e-02	2.001197e+03	0.000000e+00	2.058111e+06	1.312854e+01	1.126693e+00	1.013250e+05	3.000000e+02	3.000000e+02	5.000000e+00	-1.637593e-17	
7.092540e-01	5.862493e-01	6.191861e-17	6.254405e-19	1.110888e-13	0.000000e+00	1.142481e-10	7.287805e-16	6.254405e-17	5.624667e-12	3.000000e+02	3.000000e+02	5.000000e+00	-5.701283e-02	
7.074032e-01	4.689994e-01	1.115427e+00	1.126693e-02	2.001197e+03	0.000000e+00	2.058111e+06	1.312854e+01	1.126693e+00	1.013250e+05	3.000000e+02	3.000000e+02	5.000000e+00	-1.637593e-17	
7.055524e-01	3.517496e-01	1.115427e+00	1.126693e-02	2.001197e+03	0.000000e+00	2.058111e+06	1.312854e+01	1.126693e+00	1.013250e+05	3.000000e+02	3.000000e+02	5.000000e+00	-1.637593e-17	
7.037016e-01	2.344997e-01	1.115427e+00	1.126693e-02	2.001197e+03	0.000000e+00	2.058111e+06	1.312854e+01	1.126693e+00	1.013250e+05	3.000000e+02	3.000000e+02	5.000000e+00	-1.637593e-17	
7.018508e-01	1.172499e-01	1.115427e+00	1.126693e-02	2.001197e+03	4.564961e-16	2.058111e+06	1.312854e+01	1.126693e+00	1.013250e+05	3.000000e+02	3.000000e+02	5.000000e+00	-1.637593e-17	
8.189178e-01	1.017033e+00	1.115427e+00	1.126693e-02	2.001197e+03	6.291755e-16	2.058111e+06	1.312854e+01	1.126693e+00	1.013250e+05	3.000000e+02	3.000000e+02	5.000000e+00	-1.637593e-17	
8.168158e-01	9.040294e-01	1.115427e+00	1.126693e-02	2.001197e+03	0.000000e+00	2.058111e+06	1.312854e+01	1.126693e+00	1.013250e+05	3.000000e+02	3.000000e+02	5.000000e+00	-1.637593e-17	
8.147138e-01	7.910257e-01	3.095930e-17	3.127203e-19	5.554438e-14	4.940656e-323	2.586343e+161	3.643903e-16	3.127203e-17	2.812334e-12	3.000000e+02	3.000000e+02	5.000000e+00	-5.701283e-02	
8.126119e-01	6.780221e-01	3.095930e-17	3.127203e-19	5.554438e-14	2.964394e-323	5.712405e-11	3.643903e-16	3.127203e-17	2.812334e-12	3.000000e+02	3.000000e+02	5.000000e+00	-5.701283e-02	
8.105099e-01	5.650184e-01	1.115427e+00	1.126693e-02	2.001197e+03	0.000000e+00	2.058111e+06	1.312854e+01	1.126693e+00	1.013250e+05	3.000000e+02	3.000000e+02	5.000000e+00	-1.637593e-17	
8.084079e-01	4.520147e-01	6.191861e-17	6.254405e-19	1.110888e-13	2.964394e-323	1.142481e-10	7.287805e-16	6.254405e-17	5.624667e-12	3.000000e+02	3.000000e+02	5.000000e+00	-5.701283e-02	
8.063059e-01	3.390110e-01	1.115427e+00	1.126693e-02	2.001197e+03	0.000000e+00	2.058111e+06	1.312854e+01	1.126693e+00	1.013250e+05	3.000000e+02	3.000000e+02	5.000000e+00	-2.456390e-17	
8.042040e-01	2.260074e-01	3.095930e-17	3.127203e-19	5.554438e-14	2.964394e-323	5.712405e-11	3.643903e-16	3.127203e-17	2.812334e-12	3.000000e+02	3.000000e+02	5.000000e+00	-5.701283e-02	
8.021020e-01	1.130037e-01	1.115427e+00	1.126693e-02	2.001197e+03	5.330103e-16	2.058111e+06	1.312854e+01	1.126693e+00	1.013250e+05	3.000000e+02	3.000000e+02	5.000000e+00	-1.637593e-17	
9.140642e-01	9.648553e-01	1.115427e+00	1.126693e-02	2.001197e+03	0.000000e+00	2.058111e+06	1.312854e+01	1.126693e+00	1.013250e+05	3.000000e+02	3.000000e+02	5.000000e+00	-1.637593e-17	
9.125016e-01	8.576491e-01	1.115427e+00	1.126693e-02	2.001197e+03	0.000000e+00	2.058111e+06	1.312854e+01	1.126693e+00	1.013250e+05	3.000000e+02	3.000000e+02	5.000000e+00	-1.637593e-17	
9.109389e-01	7.504430e-01	2.477301e-17	2.502324e-19	4.457109e-14	3.933005e-16	4.577980e-11	2.915777e-16	2.502324e-17	2.187391e-12	2.916039e+02	3.000000e+02	5.086002e+00	-5.701283e-02	
9.093762e-01	6.432368e-01	1.115427e+00	1.126693e-02	2.001197e+03	-1.161837e-15	2.058111e+06	1.312854e+01	1.126693e+00	1.013250e+05	3.000000e+02	3.000000e+02	5.000000e+00	-1.637593e-17	
9.078135e-01	5.360307e-01	3.095930e-17	3.127203e-19	5.554438e-14	2.964394e-323	5.712405e-11	3.643903e-16	3.127203e-17	2.812334e-12	3.000000e+02	3.000000e+02	5.000000e+00	-5.701283e-02	
9.062508e-01	4.288246e-01	1.115427e+00	1.126693e-02	2.001197e+03	0.000000e+00	2.058111e+06	1.312854e+01	1.126693e+00	1.013250e+05	3.000000e+02	3.000000e+02	5.000000e+00	-1.637593e-17	
9.046881e-01	3.216184e-01	1.238372e-16	1.250881e-18	2.221775e-13	2.964394e-323	2.284962e-10	1.457561e-15	1.250881e-16	1.124933e-11	3.000000e+02	3.000000e+02	5.000000e+00	-5.701283e-02	
9.031254e-01	2.144123e-01	1.115427e+00	1.126693e-02	2.001197e+03	4.576284e-16	2.058111e+06	1.312854e+01	1.126693e+00	1.013250e+05	3.000000e+02	3.000000e+02	5.000000e+00	-1.637593e-17	
9.015627e-01	1.072061e-01	1.537018e-16	1.552543e-18	2.757577e-13	7.721613e-17	2.836025e-10	1.809066e-15	1.552543e-16	1.396320e-11	3.000211e+02	3.000000e+02	4.999822e+00	-5.701283e-02	
2	13	41	14
13	12	42	41
12	11	43	42
11	10	44	43
10	9	45	44
9	8	46	45
8	7	47	46
7	6	48	47
6	5	49	48
5	1	40	49
14	41	50	15
41	42	51	50
42	43	52	51
43	44	53	52
44	45	54	53
45	46	55	54
46	47	56	55
47	48	57	56
48	49	58	57
49	40	39	58
15	50	59	16
50	51	60	59
51	52	61	60
52	53	62	61
53	54	63	62
54	55	64	63
55	56	65	64
56	57	66	65
57	58	67	66
58	39	38	67
16	59	68	17
59	60	69	68
60	61	70	69
61	62	71	70
62	63	72	71
63	64	73	72
64	65	74	73
65	66	75	74
66	67	76	75
67	38	37	76
17	68	77	18
68	69	78	77
69	70	79	78
70	71	80	79
71	72	81	80
72	73	82	81
73	74	83	82
74	75	84	83
75	76	85	84
76	37	36	85
18	77	86	19
77	78	87	86
78	79	88	87
79	80	89	88
80	81	90	89
81	82	91	90
82	83	92	91
83	84	93	92
84	85	94	93
85	36	35	94
19	86	95	20
86	87	96	95
87	88	97	96
88	89	98	97
89	90	99	98
90	91	100	99
91	92	101	100
92	93	102	101
93	94	103	102
94	35	34	103
20	95	104	21
95	96	105	104
96	97	106	105
97	98	107	106
98	99	108	107
99	100	109	108
100	101	110	109
101	102	111	110
102	103	112	111
103	34	33	112
21	104	113	22
104	105	114	113
105	106	115	114
106	107	116	115
107	108	117	116
108	109	118	117
109	110	119	118
110	111	120	119
111	112	121	120
112	33	32	121
22	113	23	4
113	114	24	23
114	115	25	24
115	116	26	25
116	117	27	26
117	118	28	27
118	119	29	28
119	120	30	29
120	121	31	30
121	32	3	31
