TITLE = "Visualization of the solution"
VARIABLES = "x","y","Density_N2","Density_N","Momentum_x","Momentum_y","Energy","Energy_ve","Pressure","Temperature","Temperature_ve","Mach"
ZONE STRANDID=261, SOLUTIONTIME=2.6e-07, NODES= 36, ELEMENTS= 25, DATAPACKING=POINT, ZONETYPE=FEQUADRILATERAL
0.000000e+00	0.000000e+00	5.689806e-03	2.844899e-03	0.000000e+00	-3.637979e-19	2.984376e+05	7.912294e+04	6.186302e+04	1.831622e+04	1.830782e+04	1.292721e-20	
2.000000e-01	0.000000e+00	5.689806e-03	2.844899e-03	0.000000e+00	7.275958e-19	2.984376e+05	7.912294e+04	6.186302e+04	1.831622e+04	1.830782e+04	2.585441e-20	
4.000000e-01	0.000000e+00	5.689806e-03	2.844899e-03	0.000000e+00	-1.818989e-19	2.984376e+05	7.912294e+04	6.186302e+04	1.831622e+04	1.830782e+04	6.463604e-21	
6.000000e-01	0.000000e+00	5.689806e-03	2.844899e-03	-1.818989e-19	-3.728928e-18	2.984376e+05	7.912294e+04	6.186302e+04	1.831622e+04	1.830782e+04	1.326614e-19	
8.000000e-01	0.000000e+00	5.689806e-03	2.844899e-03	0.000000e+00	2.728484e-19	2.984376e+05	7.912294e+04	6.186302e+04	1.831622e+04	1.830782e+04	9.695406e-21	
1.000000e+00	0.000000e+00	5.689806e-03	2.844899e-03	3.637979e-19	6.457412e-18	2.984376e+05	7.912294e+04	6.186302e+04	1.831622e+04	1.830782e+04	2.298218e-19	
0.000000e+00	2.000000e-01	5.689806e-03	2.844899e-03	0.000000e+00	0.000000e+00	2.984376e+05	7.912294e+04	6.186302e+04	1.831622e+04	1.830782e+04	0.000000e+00	
2.000000e-01	2.000000e-01	5.689806e-03	2.844899e-03	6.366463e-19	0.000000e+00	2.984376e+05	7.912294e+04	6.186302e+04	1.831622e+04	1.830782e+04	2.262261e-20	
4.000000e-01	2.000000e-01	5.689806e-03	2.844899e-03	-3.637979e-19	0.000000e+00	2.984376e+05	7.912294e+04	6.186302e+04	1.831622e+04	1.830782e+04	1.292721e-20	
6.000000e-01	2.000000e-01	5.689806e-03	2.844899e-03	0.000000e+00	1.864464e-18	2.984376e+05	7.912294e+04	6.186302e+04	1.831622e+04	1.830782e+04	6.625194e-20	
8.000000e-01	2.000000e-01	5.689806e-03	2.844899e-03	0.000000e+00	-2.182787e-18	2.984376e+05	7.912294e+04	6.186302e+04	1.831622e+04	1.830782e+04	7.756324e-20	
1.000000e+00	2.000000e-01	5.689806e-03	2.844899e-03	0.000000e+00	0.000000e+00	2.984376e+05	7.912294e+04	6.186302e+04	1.831622e+04	1.830782e+04	0.000000e+00	
0.000000e+00	4.000000e-01	5.689806e-03	2.844899e-03	7.275958e-19	1.818989e-19	2.984376e+05	7.912294e+04	6.186302e+04	1.831622e+04	1.830782e+04	2.665012e-20	
2.000000e-01	4.000000e-01	5.689806e-03	2.844899e-03	1.846050e-18	0.000000e+00	2.984376e+05	7.912294e+04	6.186302e+04	1.831622e+04	1.830782e+04	6.559761e-20	
4.000000e-01	4.000000e-01	5.689806e-03	2.844899e-03	-1.841420e-20	-1.818989e-19	2.984376e+05	7.912294e+04	6.186302e+04	1.831622e+04	1.830782e+04	6.496639e-21	
6.000000e-01	4.000000e-01	5.689806e-03	2.844899e-03	-1.864464e-18	0.000000e+00	2.984376e+05	7.912294e+04	6.186302e+04	1.831622e+04	1.830782e+04	6.625194e-20	
8.000000e-01	4.000000e-01	5.689806e-03	2.844899e-03	0.000000e+00	-9.094947e-20	2.984376e+05	7.912294e+04	6.186302e+04	1.831622e+04	1.830782e+04	3.231802e-21	
1.000000e+00	4.000000e-01	5.689806e-03	2.844899e-03	0.000000e+00	0.000000e+00	2.984376e+05	7.912294e+04	6.186302e+04	1.831622e+04	1.830782e+04	0.000000e+00	
0.000000e+00	6.000000e-01	5.689806e-03	2.844899e-03	-1.818989e-19	0.000000e+00	2.984376e+05	7.912294e+04	6.186302e+04	1.831622e+04	1.830782e+04	6.463604e-21	
2.000000e-01	6.000000e-01	5.689806e-03	2.844899e-03	-5.825252e-19	0.000000e+00	2.984376e+05	7.912294e+04	6.186302e+04	1.831622e+04	1.830782e+04	2.069947e-20	
4.000000e-01	6.000000e-01	5.689806e-03	2.844899e-03	1.364242e-19	-1.818989e-19	2.984376e+05	7.912294e+04	6.186302e+04	1.831622e+04	1.830782e+04	8.079505e-21	
6.000000e-01	6.000000e-01	5.689806e-03	2.844899e-03	4.006263e-19	0.000000e+00	2.984376e+05	7.912294e+04	6.186302e+04	1.831622e+04	1.830782e+04	1.423587e-20	
8.000000e-01	6.000000e-01	5.689806e-03	2.844899e-03	0.000000e+00	-1.364242e-19	2.984376e+05	7.912294e+04	6.186302e+04	1.831622e+04	1.830782e+04	4.847703e-21	
1.000000e+00	6.000000e-01	5.689806e-03	2.844899e-03	4.183676e-18	0.000000e+00	2.984376e+05	7.912294e+04	6.186302e+04	1.831622e+04	1.830782e+04	1.486629e-19	
0.000000e+00	8.000000e-01	5.689806e-03	2.844899e-03	0.000000e+00	-1.818989e-19	2.984376e+05	7.912294e+04	6.186302e+04	1.831622e+04	1.830782e+04	6.463604e-21	
2.000000e-01	8.000000e-01	5.689806e-03	2.844899e-03	-1.364242e-19	-3.637979e-19	2.984376e+05	7.912294e+04	6.186302e+04	1.831622e+04	1.830782e+04	1.380626e-20	
4.000000e-01	8.000000e-01	5.689806e-03	2.844899e-03	0.000000e+00	0.000000e+00	2.984376e+05	7.912294e+04	6.186302e+04	1.831622e+04	1.830782e+04	0.000000e+00	
6.000000e-01	8.000000e-01	5.689806e-03	2.844899e-03	0.000000e+00	1.364242e-19	2.984376e+05	7.912294e+04	6.186302e+04	1.831622e+04	1.830782e+04	4.847703e-21	
8.000000e-01	8.000000e-01	5.689806e-03	2.844899e-03	0.000000e+00	9.094947e-20	2.984376e+05	7.912294e+04	6.186302e+04	1.831622e+04	1.830782e+04	3.231802e-21	
1.000000e+00	8.000000e-01	5.689806e-03	2.844899e-03	-3.456080e-18	0.000000e+00	2.984376e+05	7.912294e+04	6.186302e+04	1.831622e+04	1.830782e+04	1.228085e-19	
0.000000e+00	1.000000e+00	5.689806e-03	2.844899e-03	2.728484e-19	-3.637979e-19	2.984376e+05	7.912294e+04	6.186302e+04	1.831622e+04	1.830782e+04	1.615901e-20	
2.000000e-01	1.000000e+00	5.689806e-03	2.844899e-03	0.000000e+00	0.000000e+00	2.984376e+05	7.912294e+04	6.186302e+04	1.831622e+04	1.830782e+04	0.000000e+00	
4.000000e-01	1.000000e+00	5.689806e-03	2.844899e-03	0.000000e+00	0.000000e+00	2.984376e+05	7.912294e+04	6.186302e+04	1.831622e+04	1.830782e+04	0.000000e+00	
6.000000e-01	1.000000e+00	5.689806e-03	2.844899e-03	1.818989e-19	-4.183676e-18	2.984376e+05	7.912294e+04	6.186302e+04	1.831622e+04	1.830782e+04	1.488033e-19	
8.000000e-01	1.000000e+00	5.689806e-03	2.844899e-03	0.000000e+00	7.639755e-18	2.984376e+05	7.912294e+04	6.186302e+04	1.831622e+04	1.830782e+04	2.714714e-19	
1.000000e+00	1.000000e+00	5.689806e-03	2.844899e-03	0.000000e+00	-6.457412e-18	2.984376e+05	7.912294e+04	6.186302e+04	1.831622e+04	1.830782e+04	2.294579e-19	
1	2	8	7
2	3	9	8
3	4	10	9
4	5	11	10
5	6	12	11
7	8	14	13
8	9	15	14
9	10	16	15
10	11	17	16
11	12	18	17
13	14	20	19
14	15	21	20
15	16	22	21
16	17	23	22
17	18	24	23
19	20	26	25
20	21	27	26
21	22	28	27
22	23	29	28
23	24	30	29
25	26	32	31
26	27	33	32
27	28	34	33
28	29	35	34
29	30	36	35
