TITLE = "Visualization of the solution"
VARIABLES = "x","y","Density_N2","Density_N","Momentum_x","Momentum_y","Energy","Energy_ve","Pressure","Temperature","Temperature_ve","Mach"
ZONE STRANDID=591, SOLUTIONTIME=5.9e-07, NODES= 36, ELEMENTS= 25, DATAPACKING=POINT, ZONETYPE=FEQUADRILATERAL
0.000000e+00	0.000000e+00	5.689806e-03	2.844899e-03	0.000000e+00	-3.637979e-19	2.984376e+05	7.915623e+04	6.184638e+04	1.831129e+04	1.831129e+04	1.292895e-20	
2.000000e-01	0.000000e+00	5.689806e-03	2.844899e-03	0.000000e+00	7.275958e-19	2.984376e+05	7.915623e+04	6.184638e+04	1.831129e+04	1.831129e+04	2.585789e-20	
4.000000e-01	0.000000e+00	5.689806e-03	2.844899e-03	0.000000e+00	-1.818989e-19	2.984376e+05	7.915623e+04	6.184638e+04	1.831129e+04	1.831129e+04	6.464473e-21	
6.000000e-01	0.000000e+00	5.689806e-03	2.844899e-03	-1.818989e-19	-8.822099e-18	2.984376e+05	7.915623e+04	6.184638e+04	1.831129e+04	1.831129e+04	3.135936e-19	
8.000000e-01	0.000000e+00	5.689806e-03	2.844899e-03	0.000000e+00	2.728484e-19	2.984376e+05	7.915623e+04	6.184638e+04	1.831129e+04	1.831129e+04	9.696710e-21	
1.000000e+00	0.000000e+00	5.689806e-03	2.844899e-03	3.637979e-19	1.746230e-17	2.984376e+05	7.915623e+04	6.184638e+04	1.831129e+04	1.831129e+04	6.207241e-19	
0.000000e+00	2.000000e-01	5.689806e-03	2.844899e-03	0.000000e+00	0.000000e+00	2.984376e+05	7.915623e+04	6.184638e+04	1.831129e+04	1.831129e+04	0.000000e+00	
2.000000e-01	2.000000e-01	5.689806e-03	2.844899e-03	3.274181e-18	0.000000e+00	2.984376e+05	7.915623e+04	6.184638e+04	1.831129e+04	1.831129e+04	1.163605e-19	
4.000000e-01	2.000000e-01	5.689806e-03	2.844899e-03	-3.637979e-19	0.000000e+00	2.984376e+05	7.915623e+04	6.184638e+04	1.831129e+04	1.831129e+04	1.292895e-20	
6.000000e-01	2.000000e-01	5.689806e-03	2.844899e-03	0.000000e+00	4.411049e-18	2.984376e+05	7.915623e+04	6.184638e+04	1.831129e+04	1.831129e+04	1.567635e-19	
8.000000e-01	2.000000e-01	5.689806e-03	2.844899e-03	0.000000e+00	-8.412826e-18	2.984376e+05	7.915623e+04	6.184638e+04	1.831129e+04	1.831129e+04	2.989819e-19	
1.000000e+00	2.000000e-01	5.689806e-03	2.844899e-03	0.000000e+00	0.000000e+00	2.984376e+05	7.915623e+04	6.184638e+04	1.831129e+04	1.831129e+04	0.000000e+00	
0.000000e+00	4.000000e-01	5.689806e-03	2.844899e-03	5.820766e-18	1.818989e-19	2.984376e+05	7.915623e+04	6.184638e+04	1.831129e+04	1.831129e+04	2.069641e-19	
2.000000e-01	4.000000e-01	5.689806e-03	2.844899e-03	3.534902e-18	0.000000e+00	2.984376e+05	7.915623e+04	6.184638e+04	1.831129e+04	1.831129e+04	1.256262e-19	
4.000000e-01	4.000000e-01	5.689806e-03	2.844899e-03	1.670437e-18	-1.818989e-19	2.984376e+05	7.915623e+04	6.184638e+04	1.831129e+04	1.831129e+04	5.971630e-20	
6.000000e-01	4.000000e-01	5.689806e-03	2.844899e-03	-4.411049e-18	0.000000e+00	2.984376e+05	7.915623e+04	6.184638e+04	1.831129e+04	1.831129e+04	1.567635e-19	
8.000000e-01	4.000000e-01	5.689806e-03	2.844899e-03	0.000000e+00	-9.094947e-20	2.984376e+05	7.915623e+04	6.184638e+04	1.831129e+04	1.831129e+04	3.232237e-21	
1.000000e+00	4.000000e-01	5.689806e-03	2.844899e-03	0.000000e+00	0.000000e+00	2.984376e+05	7.915623e+04	6.184638e+04	1.831129e+04	1.831129e+04	0.000000e+00	
0.000000e+00	6.000000e-01	5.689806e-03	2.844899e-03	-1.818989e-19	0.000000e+00	2.984376e+05	7.915623e+04	6.184638e+04	1.831129e+04	1.831129e+04	6.464473e-21	
2.000000e-01	6.000000e-01	5.689806e-03	2.844899e-03	-3.434861e-18	0.000000e+00	2.984376e+05	7.915623e+04	6.184638e+04	1.831129e+04	1.831129e+04	1.220709e-19	
4.000000e-01	6.000000e-01	5.689806e-03	2.844899e-03	1.364242e-19	-1.818989e-19	2.984376e+05	7.915623e+04	6.184638e+04	1.831129e+04	1.831129e+04	8.080592e-21	
6.000000e-01	6.000000e-01	5.689806e-03	2.844899e-03	3.252962e-18	0.000000e+00	2.984376e+05	7.915623e+04	6.184638e+04	1.831129e+04	1.831129e+04	1.156064e-19	
8.000000e-01	6.000000e-01	5.689806e-03	2.844899e-03	0.000000e+00	-1.364242e-19	2.984376e+05	7.915623e+04	6.184638e+04	1.831129e+04	1.831129e+04	4.848355e-21	
1.000000e+00	6.000000e-01	5.689806e-03	2.844899e-03	9.276846e-18	0.000000e+00	2.984376e+05	7.915623e+04	6.184638e+04	1.831129e+04	1.831129e+04	3.296881e-19	
0.000000e+00	8.000000e-01	5.689806e-03	2.844899e-03	0.000000e+00	-1.818989e-19	2.984376e+05	7.915623e+04	6.184638e+04	1.831129e+04	1.831129e+04	6.464473e-21	
2.000000e-01	8.000000e-01	5.689806e-03	2.844899e-03	-1.364242e-19	-3.001333e-18	2.984376e+05	7.915623e+04	6.184638e+04	1.831129e+04	1.831129e+04	1.067739e-19	
4.000000e-01	8.000000e-01	5.689806e-03	2.844899e-03	0.000000e+00	0.000000e+00	2.984376e+05	7.915623e+04	6.184638e+04	1.831129e+04	1.831129e+04	0.000000e+00	
6.000000e-01	8.000000e-01	5.689806e-03	2.844899e-03	0.000000e+00	1.364242e-19	2.984376e+05	7.915623e+04	6.184638e+04	1.831129e+04	1.831129e+04	4.848355e-21	
8.000000e-01	8.000000e-01	5.689806e-03	2.844899e-03	0.000000e+00	9.094947e-20	2.984376e+05	7.915623e+04	6.184638e+04	1.831129e+04	1.831129e+04	3.232237e-21	
1.000000e+00	8.000000e-01	5.689806e-03	2.844899e-03	-8.549250e-18	0.000000e+00	2.984376e+05	7.915623e+04	6.184638e+04	1.831129e+04	1.831129e+04	3.038303e-19	
0.000000e+00	1.000000e+00	5.689806e-03	2.844899e-03	2.728484e-19	-3.637979e-19	2.984376e+05	7.915623e+04	6.184638e+04	1.831129e+04	1.831129e+04	1.616118e-20	
2.000000e-01	1.000000e+00	5.689806e-03	2.844899e-03	0.000000e+00	0.000000e+00	2.984376e+05	7.915623e+04	6.184638e+04	1.831129e+04	1.831129e+04	0.000000e+00	
4.000000e-01	1.000000e+00	5.689806e-03	2.844899e-03	0.000000e+00	0.000000e+00	2.984376e+05	7.915623e+04	6.184638e+04	1.831129e+04	1.831129e+04	0.000000e+00	
6.000000e-01	1.000000e+00	5.689806e-03	2.844899e-03	1.818989e-19	-9.276846e-18	2.984376e+05	7.915623e+04	6.184638e+04	1.831129e+04	1.831129e+04	3.297515e-19	
8.000000e-01	1.000000e+00	5.689806e-03	2.844899e-03	0.000000e+00	2.519300e-17	2.984376e+05	7.915623e+04	6.184638e+04	1.831129e+04	1.831129e+04	8.953296e-19	
1.000000e+00	1.000000e+00	5.689806e-03	2.844899e-03	0.000000e+00	-1.746230e-17	2.984376e+05	7.915623e+04	6.184638e+04	1.831129e+04	1.831129e+04	6.205895e-19	
1	2	8	7
2	3	9	8
3	4	10	9
4	5	11	10
5	6	12	11
7	8	14	13
8	9	15	14
9	10	16	15
10	11	17	16
11	12	18	17
13	14	20	19
14	15	21	20
15	16	22	21
16	17	23	22
17	18	24	23
19	20	26	25
20	21	27	26
21	22	28	27
22	23	29	28
23	24	30	29
25	26	32	31
26	27	33	32
27	28	34	33
28	29	35	34
29	30	36	35
