TITLE = "Visualization of the solution"
VARIABLES = "x","y","Density_N2","Density_N","Momentum_x","Momentum_y","Energy","Energy_ve","Pressure","Temperature","Temperature_ve","Mach"
ZONE STRANDID=61, SOLUTIONTIME=6e-08, NODES= 36, ELEMENTS= 25, DATAPACKING=POINT, ZONETYPE=FEQUADRILATERAL
0.000000e+00	0.000000e+00	5.689806e-03	2.844899e-03	0.000000e+00	-3.637979e-19	2.984376e+05	7.123663e+04	6.580618e+04	1.948369e+04	1.746943e+04	1.253392e-20	
2.000000e-01	0.000000e+00	5.689806e-03	2.844899e-03	0.000000e+00	7.275958e-19	2.984376e+05	7.123663e+04	6.580618e+04	1.948369e+04	1.746943e+04	2.506784e-20	
4.000000e-01	0.000000e+00	5.689806e-03	2.844899e-03	0.000000e+00	-1.818989e-19	2.984376e+05	7.123663e+04	6.580618e+04	1.948369e+04	1.746943e+04	6.266961e-21	
6.000000e-01	0.000000e+00	5.689806e-03	2.844899e-03	-1.818989e-19	-7.275958e-19	2.984376e+05	7.123663e+04	6.580618e+04	1.948369e+04	1.746943e+04	2.583934e-20	
8.000000e-01	0.000000e+00	5.689806e-03	2.844899e-03	0.000000e+00	2.728484e-19	2.984376e+05	7.123663e+04	6.580618e+04	1.948369e+04	1.746943e+04	9.400441e-21	
1.000000e+00	0.000000e+00	5.689806e-03	2.844899e-03	3.637979e-19	-2.728484e-19	2.984376e+05	7.123663e+04	6.580618e+04	1.948369e+04	1.746943e+04	1.566740e-20	
0.000000e+00	2.000000e-01	5.689806e-03	2.844899e-03	0.000000e+00	0.000000e+00	2.984376e+05	7.123663e+04	6.580618e+04	1.948369e+04	1.746943e+04	0.000000e+00	
2.000000e-01	2.000000e-01	5.689806e-03	2.844899e-03	-6.366463e-19	0.000000e+00	2.984376e+05	7.123663e+04	6.580618e+04	1.948369e+04	1.746943e+04	2.193436e-20	
4.000000e-01	2.000000e-01	5.689806e-03	2.844899e-03	-3.637979e-19	0.000000e+00	2.984376e+05	7.123663e+04	6.580618e+04	1.948369e+04	1.746943e+04	1.253392e-20	
6.000000e-01	2.000000e-01	5.689806e-03	2.844899e-03	0.000000e+00	3.637979e-19	2.984376e+05	7.123663e+04	6.580618e+04	1.948369e+04	1.746943e+04	1.253392e-20	
8.000000e-01	2.000000e-01	5.689806e-03	2.844899e-03	0.000000e+00	1.364242e-19	2.984376e+05	7.123663e+04	6.580618e+04	1.948369e+04	1.746943e+04	4.700220e-21	
1.000000e+00	2.000000e-01	5.689806e-03	2.844899e-03	0.000000e+00	0.000000e+00	2.984376e+05	7.123663e+04	6.580618e+04	1.948369e+04	1.746943e+04	0.000000e+00	
0.000000e+00	4.000000e-01	5.689806e-03	2.844899e-03	-2.273737e-18	1.818989e-19	2.984376e+05	7.123663e+04	6.580618e+04	1.948369e+04	1.746943e+04	7.858729e-20	
2.000000e-01	4.000000e-01	5.689806e-03	2.844899e-03	4.261375e-19	0.000000e+00	2.984376e+05	7.123663e+04	6.580618e+04	1.948369e+04	1.746943e+04	1.468171e-20	
4.000000e-01	4.000000e-01	5.689806e-03	2.844899e-03	-2.559835e-19	-1.818989e-19	2.984376e+05	7.123663e+04	6.580618e+04	1.948369e+04	1.746943e+04	1.081927e-20	
6.000000e-01	4.000000e-01	5.689806e-03	2.844899e-03	-3.637979e-19	0.000000e+00	2.984376e+05	7.123663e+04	6.580618e+04	1.948369e+04	1.746943e+04	1.253392e-20	
8.000000e-01	4.000000e-01	5.689806e-03	2.844899e-03	0.000000e+00	-9.094947e-20	2.984376e+05	7.123663e+04	6.580618e+04	1.948369e+04	1.746943e+04	3.133480e-21	
1.000000e+00	4.000000e-01	5.689806e-03	2.844899e-03	0.000000e+00	0.000000e+00	2.984376e+05	7.123663e+04	6.580618e+04	1.948369e+04	1.746943e+04	0.000000e+00	
0.000000e+00	6.000000e-01	5.689806e-03	2.844899e-03	-1.818989e-19	0.000000e+00	2.984376e+05	7.123663e+04	6.580618e+04	1.948369e+04	1.746943e+04	6.266961e-21	
2.000000e-01	6.000000e-01	5.689806e-03	2.844899e-03	7.920455e-20	0.000000e+00	2.984376e+05	7.123663e+04	6.580618e+04	1.948369e+04	1.746943e+04	2.728833e-21	
4.000000e-01	6.000000e-01	5.689806e-03	2.844899e-03	1.364242e-19	-1.818989e-19	2.984376e+05	7.123663e+04	6.580618e+04	1.948369e+04	1.746943e+04	7.833701e-21	
6.000000e-01	6.000000e-01	5.689806e-03	2.844899e-03	-2.611035e-19	0.000000e+00	2.984376e+05	7.123663e+04	6.580618e+04	1.948369e+04	1.746943e+04	8.995793e-21	
8.000000e-01	6.000000e-01	5.689806e-03	2.844899e-03	0.000000e+00	-1.364242e-19	2.984376e+05	7.123663e+04	6.580618e+04	1.948369e+04	1.746943e+04	4.700220e-21	
1.000000e+00	6.000000e-01	5.689806e-03	2.844899e-03	1.182343e-18	0.000000e+00	2.984376e+05	7.123663e+04	6.580618e+04	1.948369e+04	1.746943e+04	4.073524e-20	
0.000000e+00	8.000000e-01	5.689806e-03	2.844899e-03	0.000000e+00	-1.818989e-19	2.984376e+05	7.123663e+04	6.580618e+04	1.948369e+04	1.746943e+04	6.266961e-21	
2.000000e-01	8.000000e-01	5.689806e-03	2.844899e-03	-1.364242e-19	9.094947e-19	2.984376e+05	7.123663e+04	6.580618e+04	1.948369e+04	1.746943e+04	3.168536e-20	
4.000000e-01	8.000000e-01	5.689806e-03	2.844899e-03	0.000000e+00	0.000000e+00	2.984376e+05	7.123663e+04	6.580618e+04	1.948369e+04	1.746943e+04	0.000000e+00	
6.000000e-01	8.000000e-01	5.689806e-03	2.844899e-03	0.000000e+00	-4.547474e-19	2.984376e+05	7.123663e+04	6.580618e+04	1.948369e+04	1.746943e+04	1.566740e-20	
8.000000e-01	8.000000e-01	5.689806e-03	2.844899e-03	0.000000e+00	9.094947e-20	2.984376e+05	7.123663e+04	6.580618e+04	1.948369e+04	1.746943e+04	3.133480e-21	
1.000000e+00	8.000000e-01	5.689806e-03	2.844899e-03	-4.547474e-19	0.000000e+00	2.984376e+05	7.123663e+04	6.580618e+04	1.948369e+04	1.746943e+04	1.566740e-20	
0.000000e+00	1.000000e+00	5.689806e-03	2.844899e-03	2.728484e-19	-3.637979e-19	2.984376e+05	7.123663e+04	6.580618e+04	1.948369e+04	1.746943e+04	1.566740e-20	
2.000000e-01	1.000000e+00	5.689806e-03	2.844899e-03	0.000000e+00	0.000000e+00	2.984376e+05	7.123663e+04	6.580618e+04	1.948369e+04	1.746943e+04	0.000000e+00	
4.000000e-01	1.000000e+00	5.689806e-03	2.844899e-03	0.000000e+00	0.000000e+00	2.984376e+05	7.123663e+04	6.580618e+04	1.948369e+04	1.746943e+04	0.000000e+00	
6.000000e-01	1.000000e+00	5.689806e-03	2.844899e-03	1.818989e-19	1.685189e-34	2.984376e+05	7.123663e+04	6.580618e+04	1.948369e+04	1.746943e+04	6.266961e-21	
8.000000e-01	1.000000e+00	5.689806e-03	2.844899e-03	0.000000e+00	-2.407412e-35	2.984376e+05	7.123663e+04	6.580618e+04	1.948369e+04	1.746943e+04	8.294253e-37	
1.000000e+00	1.000000e+00	5.689806e-03	2.844899e-03	0.000000e+00	2.728484e-19	2.984376e+05	7.123663e+04	6.580618e+04	1.948369e+04	1.746943e+04	9.400441e-21	
1	2	8	7
2	3	9	8
3	4	10	9
4	5	11	10
5	6	12	11
7	8	14	13
8	9	15	14
9	10	16	15
10	11	17	16
11	12	18	17
13	14	20	19
14	15	21	20
15	16	22	21
16	17	23	22
17	18	24	23
19	20	26	25
20	21	27	26
21	22	28	27
22	23	29	28
23	24	30	29
25	26	32	31
26	27	33	32
27	28	34	33
28	29	35	34
29	30	36	35
