TITLE = "Visualization of the solution"
VARIABLES = "x","y","Density_N2","Density_N","Momentum_x","Momentum_y","Energy","Energy_ve","Pressure","Temperature","Temperature_ve","Mach"
ZONE STRANDID=441, SOLUTIONTIME=4.4e-07, NODES= 36, ELEMENTS= 25, DATAPACKING=POINT, ZONETYPE=FEQUADRILATERAL
0.000000e+00	0.000000e+00	5.689806e-03	2.844899e-03	0.000000e+00	-3.637979e-19	2.984376e+05	7.915596e+04	6.184651e+04	1.831133e+04	1.831126e+04	1.292893e-20	
2.000000e-01	0.000000e+00	5.689806e-03	2.844899e-03	0.000000e+00	7.275958e-19	2.984376e+05	7.915596e+04	6.184651e+04	1.831133e+04	1.831126e+04	2.585787e-20	
4.000000e-01	0.000000e+00	5.689806e-03	2.844899e-03	0.000000e+00	-1.818989e-19	2.984376e+05	7.915596e+04	6.184651e+04	1.831133e+04	1.831126e+04	6.464467e-21	
6.000000e-01	0.000000e+00	5.689806e-03	2.844899e-03	-1.818989e-19	-6.275513e-18	2.984376e+05	7.915596e+04	6.184651e+04	1.831133e+04	1.831126e+04	2.231178e-19	
8.000000e-01	0.000000e+00	5.689806e-03	2.844899e-03	0.000000e+00	2.728484e-19	2.984376e+05	7.915596e+04	6.184651e+04	1.831133e+04	1.831126e+04	9.696700e-21	
1.000000e+00	0.000000e+00	5.689806e-03	2.844899e-03	3.637979e-19	1.255103e-17	2.984376e+05	7.915596e+04	6.184651e+04	1.831133e+04	1.831126e+04	4.462355e-19	
0.000000e+00	2.000000e-01	5.689806e-03	2.844899e-03	0.000000e+00	0.000000e+00	2.984376e+05	7.915596e+04	6.184651e+04	1.831133e+04	1.831126e+04	0.000000e+00	
2.000000e-01	2.000000e-01	5.689806e-03	2.844899e-03	2.091838e-18	0.000000e+00	2.984376e+05	7.915596e+04	6.184651e+04	1.831133e+04	1.831126e+04	7.434137e-20	
4.000000e-01	2.000000e-01	5.689806e-03	2.844899e-03	-3.637979e-19	0.000000e+00	2.984376e+05	7.915596e+04	6.184651e+04	1.831133e+04	1.831126e+04	1.292893e-20	
6.000000e-01	2.000000e-01	5.689806e-03	2.844899e-03	0.000000e+00	3.137757e-18	2.984376e+05	7.915596e+04	6.184651e+04	1.831133e+04	1.831126e+04	1.115120e-19	
8.000000e-01	2.000000e-01	5.689806e-03	2.844899e-03	0.000000e+00	-5.502443e-18	2.984376e+05	7.915596e+04	6.184651e+04	1.831133e+04	1.831126e+04	1.955501e-19	
1.000000e+00	2.000000e-01	5.689806e-03	2.844899e-03	0.000000e+00	0.000000e+00	2.984376e+05	7.915596e+04	6.184651e+04	1.831133e+04	1.831126e+04	0.000000e+00	
0.000000e+00	4.000000e-01	5.689806e-03	2.844899e-03	3.274181e-18	1.818989e-19	2.984376e+05	7.915596e+04	6.184651e+04	1.831133e+04	1.831126e+04	1.165398e-19	
2.000000e-01	4.000000e-01	5.689806e-03	2.844899e-03	2.766851e-18	0.000000e+00	2.984376e+05	7.915596e+04	6.184651e+04	1.831133e+04	1.831126e+04	9.833053e-20	
4.000000e-01	4.000000e-01	5.689806e-03	2.844899e-03	9.023873e-19	-1.818989e-19	2.984376e+05	7.915596e+04	6.184651e+04	1.831133e+04	1.831126e+04	3.271479e-20	
6.000000e-01	4.000000e-01	5.689806e-03	2.844899e-03	-3.137757e-18	0.000000e+00	2.984376e+05	7.915596e+04	6.184651e+04	1.831133e+04	1.831126e+04	1.115120e-19	
8.000000e-01	4.000000e-01	5.689806e-03	2.844899e-03	0.000000e+00	-9.094947e-20	2.984376e+05	7.915596e+04	6.184651e+04	1.831133e+04	1.831126e+04	3.232233e-21	
1.000000e+00	4.000000e-01	5.689806e-03	2.844899e-03	0.000000e+00	0.000000e+00	2.984376e+05	7.915596e+04	6.184651e+04	1.831133e+04	1.831126e+04	0.000000e+00	
0.000000e+00	6.000000e-01	5.689806e-03	2.844899e-03	-1.818989e-19	0.000000e+00	2.984376e+05	7.915596e+04	6.184651e+04	1.831133e+04	1.831126e+04	6.464467e-21	
2.000000e-01	6.000000e-01	5.689806e-03	2.844899e-03	-2.060578e-18	0.000000e+00	2.984376e+05	7.915596e+04	6.184651e+04	1.831133e+04	1.831126e+04	7.323043e-20	
4.000000e-01	6.000000e-01	5.689806e-03	2.844899e-03	1.364242e-19	-1.818989e-19	2.984376e+05	7.915596e+04	6.184651e+04	1.831133e+04	1.831126e+04	8.080583e-21	
6.000000e-01	6.000000e-01	5.689806e-03	2.844899e-03	1.878679e-18	0.000000e+00	2.984376e+05	7.915596e+04	6.184651e+04	1.831133e+04	1.831126e+04	6.676596e-20	
8.000000e-01	6.000000e-01	5.689806e-03	2.844899e-03	0.000000e+00	-1.364242e-19	2.984376e+05	7.915596e+04	6.184651e+04	1.831133e+04	1.831126e+04	4.848350e-21	
1.000000e+00	6.000000e-01	5.689806e-03	2.844899e-03	6.730261e-18	0.000000e+00	2.984376e+05	7.915596e+04	6.184651e+04	1.831133e+04	1.831126e+04	2.391853e-19	
0.000000e+00	8.000000e-01	5.689806e-03	2.844899e-03	0.000000e+00	-1.818989e-19	2.984376e+05	7.915596e+04	6.184651e+04	1.831133e+04	1.831126e+04	6.464467e-21	
2.000000e-01	8.000000e-01	5.689806e-03	2.844899e-03	-1.364242e-19	-1.818989e-18	2.984376e+05	7.915596e+04	6.184651e+04	1.831133e+04	1.831126e+04	6.482622e-20	
4.000000e-01	8.000000e-01	5.689806e-03	2.844899e-03	0.000000e+00	0.000000e+00	2.984376e+05	7.915596e+04	6.184651e+04	1.831133e+04	1.831126e+04	0.000000e+00	
6.000000e-01	8.000000e-01	5.689806e-03	2.844899e-03	0.000000e+00	1.364242e-19	2.984376e+05	7.915596e+04	6.184651e+04	1.831133e+04	1.831126e+04	4.848350e-21	
8.000000e-01	8.000000e-01	5.689806e-03	2.844899e-03	0.000000e+00	9.094947e-20	2.984376e+05	7.915596e+04	6.184651e+04	1.831133e+04	1.831126e+04	3.232233e-21	
1.000000e+00	8.000000e-01	5.689806e-03	2.844899e-03	-6.002665e-18	0.000000e+00	2.984376e+05	7.915596e+04	6.184651e+04	1.831133e+04	1.831126e+04	2.133274e-19	
0.000000e+00	1.000000e+00	5.689806e-03	2.844899e-03	2.728484e-19	-3.637979e-19	2.984376e+05	7.915596e+04	6.184651e+04	1.831133e+04	1.831126e+04	1.616117e-20	
2.000000e-01	1.000000e+00	5.689806e-03	2.844899e-03	0.000000e+00	0.000000e+00	2.984376e+05	7.915596e+04	6.184651e+04	1.831133e+04	1.831126e+04	0.000000e+00	
4.000000e-01	1.000000e+00	5.689806e-03	2.844899e-03	0.000000e+00	0.000000e+00	2.984376e+05	7.915596e+04	6.184651e+04	1.831133e+04	1.831126e+04	0.000000e+00	
6.000000e-01	1.000000e+00	5.689806e-03	2.844899e-03	1.818989e-19	-6.730261e-18	2.984376e+05	7.915596e+04	6.184651e+04	1.831133e+04	1.831126e+04	2.392726e-19	
8.000000e-01	1.000000e+00	5.689806e-03	2.844899e-03	0.000000e+00	1.682565e-17	2.984376e+05	7.915596e+04	6.184651e+04	1.831133e+04	1.831126e+04	5.979632e-19	
1.000000e+00	1.000000e+00	5.689806e-03	2.844899e-03	0.000000e+00	-1.255103e-17	2.984376e+05	7.915596e+04	6.184651e+04	1.831133e+04	1.831126e+04	4.460482e-19	
1	2	8	7
2	3	9	8
3	4	10	9
4	5	11	10
5	6	12	11
7	8	14	13
8	9	15	14
9	10	16	15
10	11	17	16
11	12	18	17
13	14	20	19
14	15	21	20
15	16	22	21
16	17	23	22
17	18	24	23
19	20	26	25
20	21	27	26
21	22	28	27
22	23	29	28
23	24	30	29
25	26	32	31
26	27	33	32
27	28	34	33
28	29	35	34
29	30	36	35
