TITLE = "Visualization of the solution"
VARIABLES = "x","y","Density_N2","Density_N","Momentum_x","Momentum_y","Energy","Energy_ve","Pressure","Temperature","Temperature_ve","Mach"
ZONE STRANDID=171, SOLUTIONTIME=1.7e-07, NODES= 36, ELEMENTS= 25, DATAPACKING=POINT, ZONETYPE=FEQUADRILATERAL
0.000000e+00	0.000000e+00	5.689806e-03	2.844899e-03	0.000000e+00	-3.637979e-19	2.984376e+05	7.878355e+04	6.203272e+04	1.836646e+04	1.827247e+04	1.290951e-20	
2.000000e-01	0.000000e+00	5.689806e-03	2.844899e-03	0.000000e+00	7.275958e-19	2.984376e+05	7.878355e+04	6.203272e+04	1.836646e+04	1.827247e+04	2.581903e-20	
4.000000e-01	0.000000e+00	5.689806e-03	2.844899e-03	0.000000e+00	-1.818989e-19	2.984376e+05	7.878355e+04	6.203272e+04	1.836646e+04	1.827247e+04	6.454757e-21	
6.000000e-01	0.000000e+00	5.689806e-03	2.844899e-03	-1.818989e-19	-2.091838e-18	2.984376e+05	7.878355e+04	6.203272e+04	1.836646e+04	1.827247e+04	7.450982e-20	
8.000000e-01	0.000000e+00	5.689806e-03	2.844899e-03	0.000000e+00	2.728484e-19	2.984376e+05	7.878355e+04	6.203272e+04	1.836646e+04	1.827247e+04	9.682135e-21	
1.000000e+00	0.000000e+00	5.689806e-03	2.844899e-03	3.637979e-19	2.637535e-18	2.984376e+05	7.878355e+04	6.203272e+04	1.836646e+04	1.827247e+04	9.448009e-20	
0.000000e+00	2.000000e-01	5.689806e-03	2.844899e-03	0.000000e+00	0.000000e+00	2.984376e+05	7.878355e+04	6.203272e+04	1.836646e+04	1.827247e+04	0.000000e+00	
2.000000e-01	2.000000e-01	5.689806e-03	2.844899e-03	-1.364242e-19	0.000000e+00	2.984376e+05	7.878355e+04	6.203272e+04	1.836646e+04	1.827247e+04	4.841068e-21	
4.000000e-01	2.000000e-01	5.689806e-03	2.844899e-03	-3.637979e-19	0.000000e+00	2.984376e+05	7.878355e+04	6.203272e+04	1.836646e+04	1.827247e+04	1.290951e-20	
6.000000e-01	2.000000e-01	5.689806e-03	2.844899e-03	0.000000e+00	1.045919e-18	2.984376e+05	7.878355e+04	6.203272e+04	1.836646e+04	1.827247e+04	3.711485e-20	
8.000000e-01	2.000000e-01	5.689806e-03	2.844899e-03	0.000000e+00	-6.366463e-19	2.984376e+05	7.878355e+04	6.203272e+04	1.836646e+04	1.827247e+04	2.259165e-20	
1.000000e+00	2.000000e-01	5.689806e-03	2.844899e-03	0.000000e+00	0.000000e+00	2.984376e+05	7.878355e+04	6.203272e+04	1.836646e+04	1.827247e+04	0.000000e+00	
0.000000e+00	4.000000e-01	5.689806e-03	2.844899e-03	-9.094947e-19	1.818989e-19	2.984376e+05	7.878355e+04	6.203272e+04	1.836646e+04	1.827247e+04	3.291293e-20	
2.000000e-01	4.000000e-01	5.689806e-03	2.844899e-03	1.394101e-18	0.000000e+00	2.984376e+05	7.878355e+04	6.203272e+04	1.836646e+04	1.827247e+04	4.947022e-20	
4.000000e-01	4.000000e-01	5.689806e-03	2.844899e-03	-4.703635e-19	-1.818989e-19	2.984376e+05	7.878355e+04	6.203272e+04	1.836646e+04	1.827247e+04	1.789566e-20	
6.000000e-01	4.000000e-01	5.689806e-03	2.844899e-03	-1.045919e-18	0.000000e+00	2.984376e+05	7.878355e+04	6.203272e+04	1.836646e+04	1.827247e+04	3.711485e-20	
8.000000e-01	4.000000e-01	5.689806e-03	2.844899e-03	0.000000e+00	-9.094947e-20	2.984376e+05	7.878355e+04	6.203272e+04	1.836646e+04	1.827247e+04	3.227378e-21	
1.000000e+00	4.000000e-01	5.689806e-03	2.844899e-03	0.000000e+00	0.000000e+00	2.984376e+05	7.878355e+04	6.203272e+04	1.836646e+04	1.827247e+04	0.000000e+00	
0.000000e+00	6.000000e-01	5.689806e-03	2.844899e-03	-1.818989e-19	0.000000e+00	2.984376e+05	7.878355e+04	6.203272e+04	1.836646e+04	1.827247e+04	6.454757e-21	
2.000000e-01	6.000000e-01	5.689806e-03	2.844899e-03	5.971710e-20	0.000000e+00	2.984376e+05	7.878355e+04	6.203272e+04	1.836646e+04	1.827247e+04	2.119085e-21	
4.000000e-01	6.000000e-01	5.689806e-03	2.844899e-03	1.364242e-19	-1.818989e-19	2.984376e+05	7.878355e+04	6.203272e+04	1.836646e+04	1.827247e+04	8.068446e-21	
6.000000e-01	6.000000e-01	5.689806e-03	2.844899e-03	-2.416160e-19	0.000000e+00	2.984376e+05	7.878355e+04	6.203272e+04	1.836646e+04	1.827247e+04	8.573842e-21	
8.000000e-01	6.000000e-01	5.689806e-03	2.844899e-03	0.000000e+00	-1.364242e-19	2.984376e+05	7.878355e+04	6.203272e+04	1.836646e+04	1.827247e+04	4.841068e-21	
1.000000e+00	6.000000e-01	5.689806e-03	2.844899e-03	2.546585e-18	0.000000e+00	2.984376e+05	7.878355e+04	6.203272e+04	1.836646e+04	1.827247e+04	9.036660e-20	
0.000000e+00	8.000000e-01	5.689806e-03	2.844899e-03	0.000000e+00	-1.818989e-19	2.984376e+05	7.878355e+04	6.203272e+04	1.836646e+04	1.827247e+04	6.454757e-21	
2.000000e-01	8.000000e-01	5.689806e-03	2.844899e-03	-1.364242e-19	4.092726e-19	2.984376e+05	7.878355e+04	6.203272e+04	1.836646e+04	1.827247e+04	1.530880e-20	
4.000000e-01	8.000000e-01	5.689806e-03	2.844899e-03	0.000000e+00	0.000000e+00	2.984376e+05	7.878355e+04	6.203272e+04	1.836646e+04	1.827247e+04	0.000000e+00	
6.000000e-01	8.000000e-01	5.689806e-03	2.844899e-03	0.000000e+00	1.364242e-19	2.984376e+05	7.878355e+04	6.203272e+04	1.836646e+04	1.827247e+04	4.841068e-21	
8.000000e-01	8.000000e-01	5.689806e-03	2.844899e-03	0.000000e+00	9.094947e-20	2.984376e+05	7.878355e+04	6.203272e+04	1.836646e+04	1.827247e+04	3.227378e-21	
1.000000e+00	8.000000e-01	5.689806e-03	2.844899e-03	-1.818989e-18	0.000000e+00	2.984376e+05	7.878355e+04	6.203272e+04	1.836646e+04	1.827247e+04	6.454757e-20	
0.000000e+00	1.000000e+00	5.689806e-03	2.844899e-03	2.728484e-19	-3.637979e-19	2.984376e+05	7.878355e+04	6.203272e+04	1.836646e+04	1.827247e+04	1.613689e-20	
2.000000e-01	1.000000e+00	5.689806e-03	2.844899e-03	0.000000e+00	0.000000e+00	2.984376e+05	7.878355e+04	6.203272e+04	1.836646e+04	1.827247e+04	0.000000e+00	
4.000000e-01	1.000000e+00	5.689806e-03	2.844899e-03	0.000000e+00	0.000000e+00	2.984376e+05	7.878355e+04	6.203272e+04	1.836646e+04	1.827247e+04	0.000000e+00	
6.000000e-01	1.000000e+00	5.689806e-03	2.844899e-03	1.818989e-19	-2.546585e-18	2.984376e+05	7.878355e+04	6.203272e+04	1.836646e+04	1.827247e+04	9.059683e-20	
8.000000e-01	1.000000e+00	5.689806e-03	2.844899e-03	0.000000e+00	2.910383e-18	2.984376e+05	7.878355e+04	6.203272e+04	1.836646e+04	1.827247e+04	1.032761e-19	
1.000000e+00	1.000000e+00	5.689806e-03	2.844899e-03	0.000000e+00	-2.637535e-18	2.984376e+05	7.878355e+04	6.203272e+04	1.836646e+04	1.827247e+04	9.359398e-20	
1	2	8	7
2	3	9	8
3	4	10	9
4	5	11	10
5	6	12	11
7	8	14	13
8	9	15	14
9	10	16	15
10	11	17	16
11	12	18	17
13	14	20	19
14	15	21	20
15	16	22	21
16	17	23	22
17	18	24	23
19	20	26	25
20	21	27	26
21	22	28	27
22	23	29	28
23	24	30	29
25	26	32	31
26	27	33	32
27	28	34	33
28	29	35	34
29	30	36	35
