TITLE = "Visualization of the solution"
VARIABLES = "x","y","Density_N2","Density_N","Momentum_x","Momentum_y","Energy","Energy_ve","Pressure","Temperature","Temperature_ve","Mach"
ZONE STRANDID=191, SOLUTIONTIME=1.9e-07, NODES= 36, ELEMENTS= 25, DATAPACKING=POINT, ZONETYPE=FEQUADRILATERAL
0.000000e+00	0.000000e+00	5.689806e-03	2.844899e-03	0.000000e+00	-3.637979e-19	2.984376e+05	7.893861e+04	6.195519e+04	1.834351e+04	1.828863e+04	1.291759e-20	
2.000000e-01	0.000000e+00	5.689806e-03	2.844899e-03	0.000000e+00	7.275958e-19	2.984376e+05	7.893861e+04	6.195519e+04	1.834351e+04	1.828863e+04	2.583518e-20	
4.000000e-01	0.000000e+00	5.689806e-03	2.844899e-03	0.000000e+00	-1.818989e-19	2.984376e+05	7.893861e+04	6.195519e+04	1.834351e+04	1.828863e+04	6.458794e-21	
6.000000e-01	0.000000e+00	5.689806e-03	2.844899e-03	-1.818989e-19	-2.637535e-18	2.984376e+05	7.893861e+04	6.195519e+04	1.834351e+04	1.828863e+04	9.387497e-20	
8.000000e-01	0.000000e+00	5.689806e-03	2.844899e-03	0.000000e+00	2.728484e-19	2.984376e+05	7.893861e+04	6.195519e+04	1.834351e+04	1.828863e+04	9.688191e-21	
1.000000e+00	0.000000e+00	5.689806e-03	2.844899e-03	3.637979e-19	3.456080e-18	2.984376e+05	7.893861e+04	6.195519e+04	1.834351e+04	1.828863e+04	1.233951e-19	
0.000000e+00	2.000000e-01	5.689806e-03	2.844899e-03	0.000000e+00	0.000000e+00	2.984376e+05	7.893861e+04	6.195519e+04	1.834351e+04	1.828863e+04	0.000000e+00	
2.000000e-01	2.000000e-01	5.689806e-03	2.844899e-03	9.094947e-20	0.000000e+00	2.984376e+05	7.893861e+04	6.195519e+04	1.834351e+04	1.828863e+04	3.229397e-21	
4.000000e-01	2.000000e-01	5.689806e-03	2.844899e-03	-3.637979e-19	0.000000e+00	2.984376e+05	7.893861e+04	6.195519e+04	1.834351e+04	1.828863e+04	1.291759e-20	
6.000000e-01	2.000000e-01	5.689806e-03	2.844899e-03	0.000000e+00	1.318767e-18	2.984376e+05	7.893861e+04	6.195519e+04	1.834351e+04	1.828863e+04	4.682626e-20	
8.000000e-01	2.000000e-01	5.689806e-03	2.844899e-03	0.000000e+00	-9.549694e-19	2.984376e+05	7.893861e+04	6.195519e+04	1.834351e+04	1.828863e+04	3.390867e-20	
1.000000e+00	2.000000e-01	5.689806e-03	2.844899e-03	0.000000e+00	0.000000e+00	2.984376e+05	7.893861e+04	6.195519e+04	1.834351e+04	1.828863e+04	0.000000e+00	
0.000000e+00	4.000000e-01	5.689806e-03	2.844899e-03	-3.637979e-19	1.818989e-19	2.984376e+05	7.893861e+04	6.195519e+04	1.834351e+04	1.828863e+04	1.444230e-20	
2.000000e-01	4.000000e-01	5.689806e-03	2.844899e-03	1.492455e-18	0.000000e+00	2.984376e+05	7.893861e+04	6.195519e+04	1.834351e+04	1.828863e+04	5.299348e-20	
4.000000e-01	4.000000e-01	5.689806e-03	2.844899e-03	-3.720096e-19	-1.818989e-19	2.984376e+05	7.893861e+04	6.195519e+04	1.834351e+04	1.828863e+04	1.470368e-20	
6.000000e-01	4.000000e-01	5.689806e-03	2.844899e-03	-1.318767e-18	0.000000e+00	2.984376e+05	7.893861e+04	6.195519e+04	1.834351e+04	1.828863e+04	4.682626e-20	
8.000000e-01	4.000000e-01	5.689806e-03	2.844899e-03	0.000000e+00	-9.094947e-20	2.984376e+05	7.893861e+04	6.195519e+04	1.834351e+04	1.828863e+04	3.229397e-21	
1.000000e+00	4.000000e-01	5.689806e-03	2.844899e-03	0.000000e+00	0.000000e+00	2.984376e+05	7.893861e+04	6.195519e+04	1.834351e+04	1.828863e+04	0.000000e+00	
0.000000e+00	6.000000e-01	5.689806e-03	2.844899e-03	-1.818989e-19	0.000000e+00	2.984376e+05	7.893861e+04	6.195519e+04	1.834351e+04	1.828863e+04	6.458794e-21	
2.000000e-01	6.000000e-01	5.689806e-03	2.844899e-03	-6.189816e-20	0.000000e+00	2.984376e+05	7.893861e+04	6.195519e+04	1.834351e+04	1.828863e+04	2.197855e-21	
4.000000e-01	6.000000e-01	5.689806e-03	2.844899e-03	1.364242e-19	-1.818989e-19	2.984376e+05	7.893861e+04	6.195519e+04	1.834351e+04	1.828863e+04	8.073493e-21	
6.000000e-01	6.000000e-01	5.689806e-03	2.844899e-03	-1.200008e-19	0.000000e+00	2.984376e+05	7.893861e+04	6.195519e+04	1.834351e+04	1.828863e+04	4.260940e-21	
8.000000e-01	6.000000e-01	5.689806e-03	2.844899e-03	0.000000e+00	-1.364242e-19	2.984376e+05	7.893861e+04	6.195519e+04	1.834351e+04	1.828863e+04	4.844096e-21	
1.000000e+00	6.000000e-01	5.689806e-03	2.844899e-03	3.092282e-18	0.000000e+00	2.984376e+05	7.893861e+04	6.195519e+04	1.834351e+04	1.828863e+04	1.097995e-19	
0.000000e+00	8.000000e-01	5.689806e-03	2.844899e-03	0.000000e+00	-1.818989e-19	2.984376e+05	7.893861e+04	6.195519e+04	1.834351e+04	1.828863e+04	6.458794e-21	
2.000000e-01	8.000000e-01	5.689806e-03	2.844899e-03	-1.364242e-19	1.818989e-19	2.984376e+05	7.893861e+04	6.195519e+04	1.834351e+04	1.828863e+04	8.073493e-21	
4.000000e-01	8.000000e-01	5.689806e-03	2.844899e-03	0.000000e+00	0.000000e+00	2.984376e+05	7.893861e+04	6.195519e+04	1.834351e+04	1.828863e+04	0.000000e+00	
6.000000e-01	8.000000e-01	5.689806e-03	2.844899e-03	0.000000e+00	1.364242e-19	2.984376e+05	7.893861e+04	6.195519e+04	1.834351e+04	1.828863e+04	4.844096e-21	
8.000000e-01	8.000000e-01	5.689806e-03	2.844899e-03	0.000000e+00	9.094947e-20	2.984376e+05	7.893861e+04	6.195519e+04	1.834351e+04	1.828863e+04	3.229397e-21	
1.000000e+00	8.000000e-01	5.689806e-03	2.844899e-03	-2.364686e-18	0.000000e+00	2.984376e+05	7.893861e+04	6.195519e+04	1.834351e+04	1.828863e+04	8.396433e-20	
0.000000e+00	1.000000e+00	5.689806e-03	2.844899e-03	2.728484e-19	-3.637979e-19	2.984376e+05	7.893861e+04	6.195519e+04	1.834351e+04	1.828863e+04	1.614699e-20	
2.000000e-01	1.000000e+00	5.689806e-03	2.844899e-03	0.000000e+00	0.000000e+00	2.984376e+05	7.893861e+04	6.195519e+04	1.834351e+04	1.828863e+04	0.000000e+00	
4.000000e-01	1.000000e+00	5.689806e-03	2.844899e-03	0.000000e+00	0.000000e+00	2.984376e+05	7.893861e+04	6.195519e+04	1.834351e+04	1.828863e+04	0.000000e+00	
6.000000e-01	1.000000e+00	5.689806e-03	2.844899e-03	1.818989e-19	-3.092282e-18	2.984376e+05	7.893861e+04	6.195519e+04	1.834351e+04	1.828863e+04	1.099893e-19	
8.000000e-01	1.000000e+00	5.689806e-03	2.844899e-03	0.000000e+00	4.092726e-18	2.984376e+05	7.893861e+04	6.195519e+04	1.834351e+04	1.828863e+04	1.453229e-19	
1.000000e+00	1.000000e+00	5.689806e-03	2.844899e-03	0.000000e+00	-3.456080e-18	2.984376e+05	7.893861e+04	6.195519e+04	1.834351e+04	1.828863e+04	1.227171e-19	
1	2	8	7
2	3	9	8
3	4	10	9
4	5	11	10
5	6	12	11
7	8	14	13
8	9	15	14
9	10	16	15
10	11	17	16
11	12	18	17
13	14	20	19
14	15	21	20
15	16	22	21
16	17	23	22
17	18	24	23
19	20	26	25
20	21	27	26
21	22	28	27
22	23	29	28
23	24	30	29
25	26	32	31
26	27	33	32
27	28	34	33
28	29	35	34
29	30	36	35
