TITLE = "Visualization of the solution"
VARIABLES = "x","y","Density_N2","Density_N","Momentum_x","Momentum_y","Energy","Energy_ve","Pressure","Temperature","Temperature_ve","Mach"
ZONE STRANDID=411, SOLUTIONTIME=4.1e-07, NODES= 36, ELEMENTS= 25, DATAPACKING=POINT, ZONETYPE=FEQUADRILATERAL
0.000000e+00	0.000000e+00	5.689806e-03	2.844899e-03	0.000000e+00	-3.637979e-19	2.984376e+05	7.915563e+04	6.184668e+04	1.831138e+04	1.831123e+04	1.292892e-20	
2.000000e-01	0.000000e+00	5.689806e-03	2.844899e-03	0.000000e+00	7.275958e-19	2.984376e+05	7.915563e+04	6.184668e+04	1.831138e+04	1.831123e+04	2.585783e-20	
4.000000e-01	0.000000e+00	5.689806e-03	2.844899e-03	0.000000e+00	-1.818989e-19	2.984376e+05	7.915563e+04	6.184668e+04	1.831138e+04	1.831123e+04	6.464458e-21	
6.000000e-01	0.000000e+00	5.689806e-03	2.844899e-03	-1.818989e-19	-5.729817e-18	2.984376e+05	7.915563e+04	6.184668e+04	1.831138e+04	1.831123e+04	2.037330e-19	
8.000000e-01	0.000000e+00	5.689806e-03	2.844899e-03	0.000000e+00	2.728484e-19	2.984376e+05	7.915563e+04	6.184668e+04	1.831138e+04	1.831123e+04	9.696687e-21	
1.000000e+00	0.000000e+00	5.689806e-03	2.844899e-03	3.637979e-19	1.136868e-17	2.984376e+05	7.915563e+04	6.184668e+04	1.831138e+04	1.831123e+04	4.042354e-19	
0.000000e+00	2.000000e-01	5.689806e-03	2.844899e-03	0.000000e+00	0.000000e+00	2.984376e+05	7.915563e+04	6.184668e+04	1.831138e+04	1.831123e+04	0.000000e+00	
2.000000e-01	2.000000e-01	5.689806e-03	2.844899e-03	1.955414e-18	0.000000e+00	2.984376e+05	7.915563e+04	6.184668e+04	1.831138e+04	1.831123e+04	6.949292e-20	
4.000000e-01	2.000000e-01	5.689806e-03	2.844899e-03	-3.637979e-19	0.000000e+00	2.984376e+05	7.915563e+04	6.184668e+04	1.831138e+04	1.831123e+04	1.292892e-20	
6.000000e-01	2.000000e-01	5.689806e-03	2.844899e-03	0.000000e+00	2.864908e-18	2.984376e+05	7.915563e+04	6.184668e+04	1.831138e+04	1.831123e+04	1.018152e-19	
8.000000e-01	2.000000e-01	5.689806e-03	2.844899e-03	0.000000e+00	-4.956746e-18	2.984376e+05	7.915563e+04	6.184668e+04	1.831138e+04	1.831123e+04	1.761565e-19	
1.000000e+00	2.000000e-01	5.689806e-03	2.844899e-03	0.000000e+00	0.000000e+00	2.984376e+05	7.915563e+04	6.184668e+04	1.831138e+04	1.831123e+04	0.000000e+00	
0.000000e+00	4.000000e-01	5.689806e-03	2.844899e-03	2.728484e-18	1.818989e-19	2.984376e+05	7.915563e+04	6.184668e+04	1.831138e+04	1.831123e+04	9.718211e-20	
2.000000e-01	4.000000e-01	5.689806e-03	2.844899e-03	2.613249e-18	0.000000e+00	2.984376e+05	7.915563e+04	6.184668e+04	1.831138e+04	1.831123e+04	9.287155e-20	
4.000000e-01	4.000000e-01	5.689806e-03	2.844899e-03	7.487846e-19	-1.818989e-19	2.984376e+05	7.915563e+04	6.184668e+04	1.831138e+04	1.831123e+04	2.738479e-20	
6.000000e-01	4.000000e-01	5.689806e-03	2.844899e-03	-2.864908e-18	0.000000e+00	2.984376e+05	7.915563e+04	6.184668e+04	1.831138e+04	1.831123e+04	1.018152e-19	
8.000000e-01	4.000000e-01	5.689806e-03	2.844899e-03	0.000000e+00	-9.094947e-20	2.984376e+05	7.915563e+04	6.184668e+04	1.831138e+04	1.831123e+04	3.232229e-21	
1.000000e+00	4.000000e-01	5.689806e-03	2.844899e-03	0.000000e+00	0.000000e+00	2.984376e+05	7.915563e+04	6.184668e+04	1.831138e+04	1.831123e+04	0.000000e+00	
0.000000e+00	6.000000e-01	5.689806e-03	2.844899e-03	-1.818989e-19	0.000000e+00	2.984376e+05	7.915563e+04	6.184668e+04	1.831138e+04	1.831123e+04	6.464458e-21	
2.000000e-01	6.000000e-01	5.689806e-03	2.844899e-03	-1.822087e-18	0.000000e+00	2.984376e+05	7.915563e+04	6.184668e+04	1.831138e+04	1.831123e+04	6.475465e-20	
4.000000e-01	6.000000e-01	5.689806e-03	2.844899e-03	1.364242e-19	-1.818989e-19	2.984376e+05	7.915563e+04	6.184668e+04	1.831138e+04	1.831123e+04	8.080572e-21	
6.000000e-01	6.000000e-01	5.689806e-03	2.844899e-03	1.640188e-18	0.000000e+00	2.984376e+05	7.915563e+04	6.184668e+04	1.831138e+04	1.831123e+04	5.829019e-20	
8.000000e-01	6.000000e-01	5.689806e-03	2.844899e-03	0.000000e+00	-1.364242e-19	2.984376e+05	7.915563e+04	6.184668e+04	1.831138e+04	1.831123e+04	4.848343e-21	
1.000000e+00	6.000000e-01	5.689806e-03	2.844899e-03	6.184564e-18	0.000000e+00	2.984376e+05	7.915563e+04	6.184668e+04	1.831138e+04	1.831123e+04	2.197916e-19	
0.000000e+00	8.000000e-01	5.689806e-03	2.844899e-03	0.000000e+00	-1.818989e-19	2.984376e+05	7.915563e+04	6.184668e+04	1.831138e+04	1.831123e+04	6.464458e-21	
2.000000e-01	8.000000e-01	5.689806e-03	2.844899e-03	-1.364242e-19	-1.682565e-18	2.984376e+05	7.915563e+04	6.184668e+04	1.831138e+04	1.831123e+04	5.999247e-20	
4.000000e-01	8.000000e-01	5.689806e-03	2.844899e-03	0.000000e+00	0.000000e+00	2.984376e+05	7.915563e+04	6.184668e+04	1.831138e+04	1.831123e+04	0.000000e+00	
6.000000e-01	8.000000e-01	5.689806e-03	2.844899e-03	0.000000e+00	1.364242e-19	2.984376e+05	7.915563e+04	6.184668e+04	1.831138e+04	1.831123e+04	4.848343e-21	
8.000000e-01	8.000000e-01	5.689806e-03	2.844899e-03	0.000000e+00	9.094947e-20	2.984376e+05	7.915563e+04	6.184668e+04	1.831138e+04	1.831123e+04	3.232229e-21	
1.000000e+00	8.000000e-01	5.689806e-03	2.844899e-03	-5.456968e-18	0.000000e+00	2.984376e+05	7.915563e+04	6.184668e+04	1.831138e+04	1.831123e+04	1.939337e-19	
0.000000e+00	1.000000e+00	5.689806e-03	2.844899e-03	2.728484e-19	-3.637979e-19	2.984376e+05	7.915563e+04	6.184668e+04	1.831138e+04	1.831123e+04	1.616114e-20	
2.000000e-01	1.000000e+00	5.689806e-03	2.844899e-03	0.000000e+00	0.000000e+00	2.984376e+05	7.915563e+04	6.184668e+04	1.831138e+04	1.831123e+04	0.000000e+00	
4.000000e-01	1.000000e+00	5.689806e-03	2.844899e-03	0.000000e+00	0.000000e+00	2.984376e+05	7.915563e+04	6.184668e+04	1.831138e+04	1.831123e+04	0.000000e+00	
6.000000e-01	1.000000e+00	5.689806e-03	2.844899e-03	1.818989e-19	-6.184564e-18	2.984376e+05	7.915563e+04	6.184668e+04	1.831138e+04	1.831123e+04	2.198866e-19	
8.000000e-01	1.000000e+00	5.689806e-03	2.844899e-03	0.000000e+00	1.518856e-17	2.984376e+05	7.915563e+04	6.184668e+04	1.831138e+04	1.831123e+04	5.397822e-19	
1.000000e+00	1.000000e+00	5.689806e-03	2.844899e-03	0.000000e+00	-1.136868e-17	2.984376e+05	7.915563e+04	6.184668e+04	1.831138e+04	1.831123e+04	4.040286e-19	
1	2	8	7
2	3	9	8
3	4	10	9
4	5	11	10
5	6	12	11
7	8	14	13
8	9	15	14
9	10	16	15
10	11	17	16
11	12	18	17
13	14	20	19
14	15	21	20
15	16	22	21
16	17	23	22
17	18	24	23
19	20	26	25
20	21	27	26
21	22	28	27
22	23	29	28
23	24	30	29
25	26	32	31
26	27	33	32
27	28	34	33
28	29	35	34
29	30	36	35
