TITLE = "Visualization of the solution"
VARIABLES = "x","y","Density_N2","Density_N","Momentum_x","Momentum_y","Energy","Energy_ve","Pressure","Temperature","Temperature_ve","Mach"
ZONE STRANDID=201, SOLUTIONTIME=2e-07, NODES= 36, ELEMENTS= 25, DATAPACKING=POINT, ZONETYPE=FEQUADRILATERAL
0.000000e+00	0.000000e+00	5.689806e-03	2.844899e-03	0.000000e+00	-3.637979e-19	2.984376e+05	7.898987e+04	6.192956e+04	1.833592e+04	1.829397e+04	1.292026e-20	
2.000000e-01	0.000000e+00	5.689806e-03	2.844899e-03	0.000000e+00	7.275958e-19	2.984376e+05	7.898987e+04	6.192956e+04	1.833592e+04	1.829397e+04	2.584052e-20	
4.000000e-01	0.000000e+00	5.689806e-03	2.844899e-03	0.000000e+00	-1.818989e-19	2.984376e+05	7.898987e+04	6.192956e+04	1.833592e+04	1.829397e+04	6.460131e-21	
6.000000e-01	0.000000e+00	5.689806e-03	2.844899e-03	-1.818989e-19	-2.910383e-18	2.984376e+05	7.898987e+04	6.192956e+04	1.833592e+04	1.829397e+04	1.035638e-19	
8.000000e-01	0.000000e+00	5.689806e-03	2.844899e-03	0.000000e+00	2.728484e-19	2.984376e+05	7.898987e+04	6.192956e+04	1.833592e+04	1.829397e+04	9.690196e-21	
1.000000e+00	0.000000e+00	5.689806e-03	2.844899e-03	3.637979e-19	3.910827e-18	2.984376e+05	7.898987e+04	6.192956e+04	1.833592e+04	1.829397e+04	1.394925e-19	
0.000000e+00	2.000000e-01	5.689806e-03	2.844899e-03	0.000000e+00	0.000000e+00	2.984376e+05	7.898987e+04	6.192956e+04	1.833592e+04	1.829397e+04	0.000000e+00	
2.000000e-01	2.000000e-01	5.689806e-03	2.844899e-03	9.094947e-20	0.000000e+00	2.984376e+05	7.898987e+04	6.192956e+04	1.833592e+04	1.829397e+04	3.230065e-21	
4.000000e-01	2.000000e-01	5.689806e-03	2.844899e-03	-3.637979e-19	0.000000e+00	2.984376e+05	7.898987e+04	6.192956e+04	1.833592e+04	1.829397e+04	1.292026e-20	
6.000000e-01	2.000000e-01	5.689806e-03	2.844899e-03	0.000000e+00	1.455192e-18	2.984376e+05	7.898987e+04	6.192956e+04	1.833592e+04	1.829397e+04	5.168105e-20	
8.000000e-01	2.000000e-01	5.689806e-03	2.844899e-03	0.000000e+00	-1.000444e-18	2.984376e+05	7.898987e+04	6.192956e+04	1.833592e+04	1.829397e+04	3.553072e-20	
1.000000e+00	2.000000e-01	5.689806e-03	2.844899e-03	0.000000e+00	0.000000e+00	2.984376e+05	7.898987e+04	6.192956e+04	1.833592e+04	1.829397e+04	0.000000e+00	
0.000000e+00	4.000000e-01	5.689806e-03	2.844899e-03	-9.094947e-20	1.818989e-19	2.984376e+05	7.898987e+04	6.192956e+04	1.833592e+04	1.829397e+04	7.222646e-21	
2.000000e-01	4.000000e-01	5.689806e-03	2.844899e-03	1.542316e-18	0.000000e+00	2.984376e+05	7.898987e+04	6.192956e+04	1.833592e+04	1.829397e+04	5.477527e-20	
4.000000e-01	4.000000e-01	5.689806e-03	2.844899e-03	-3.221479e-19	-1.818989e-19	2.984376e+05	7.898987e+04	6.192956e+04	1.833592e+04	1.829397e+04	1.313892e-20	
6.000000e-01	4.000000e-01	5.689806e-03	2.844899e-03	-1.455192e-18	0.000000e+00	2.984376e+05	7.898987e+04	6.192956e+04	1.833592e+04	1.829397e+04	5.168105e-20	
8.000000e-01	4.000000e-01	5.689806e-03	2.844899e-03	0.000000e+00	-9.094947e-20	2.984376e+05	7.898987e+04	6.192956e+04	1.833592e+04	1.829397e+04	3.230065e-21	
1.000000e+00	4.000000e-01	5.689806e-03	2.844899e-03	0.000000e+00	0.000000e+00	2.984376e+05	7.898987e+04	6.192956e+04	1.833592e+04	1.829397e+04	0.000000e+00	
0.000000e+00	6.000000e-01	5.689806e-03	2.844899e-03	-1.818989e-19	0.000000e+00	2.984376e+05	7.898987e+04	6.192956e+04	1.833592e+04	1.829397e+04	6.460131e-21	
2.000000e-01	6.000000e-01	5.689806e-03	2.844899e-03	-7.649507e-21	0.000000e+00	2.984376e+05	7.898987e+04	6.192956e+04	1.833592e+04	1.829397e+04	2.716718e-22	
4.000000e-01	6.000000e-01	5.689806e-03	2.844899e-03	1.364242e-19	-1.818989e-19	2.984376e+05	7.898987e+04	6.192956e+04	1.833592e+04	1.829397e+04	8.075163e-21	
6.000000e-01	6.000000e-01	5.689806e-03	2.844899e-03	-1.742494e-19	0.000000e+00	2.984376e+05	7.898987e+04	6.192956e+04	1.833592e+04	1.829397e+04	6.188459e-21	
8.000000e-01	6.000000e-01	5.689806e-03	2.844899e-03	0.000000e+00	-1.364242e-19	2.984376e+05	7.898987e+04	6.192956e+04	1.833592e+04	1.829397e+04	4.845098e-21	
1.000000e+00	6.000000e-01	5.689806e-03	2.844899e-03	3.365130e-18	0.000000e+00	2.984376e+05	7.898987e+04	6.192956e+04	1.833592e+04	1.829397e+04	1.195124e-19	
0.000000e+00	8.000000e-01	5.689806e-03	2.844899e-03	0.000000e+00	-1.818989e-19	2.984376e+05	7.898987e+04	6.192956e+04	1.833592e+04	1.829397e+04	6.460131e-21	
2.000000e-01	8.000000e-01	5.689806e-03	2.844899e-03	-1.364242e-19	1.818989e-19	2.984376e+05	7.898987e+04	6.192956e+04	1.833592e+04	1.829397e+04	8.075163e-21	
4.000000e-01	8.000000e-01	5.689806e-03	2.844899e-03	0.000000e+00	0.000000e+00	2.984376e+05	7.898987e+04	6.192956e+04	1.833592e+04	1.829397e+04	0.000000e+00	
6.000000e-01	8.000000e-01	5.689806e-03	2.844899e-03	0.000000e+00	1.364242e-19	2.984376e+05	7.898987e+04	6.192956e+04	1.833592e+04	1.829397e+04	4.845098e-21	
8.000000e-01	8.000000e-01	5.689806e-03	2.844899e-03	0.000000e+00	9.094947e-20	2.984376e+05	7.898987e+04	6.192956e+04	1.833592e+04	1.829397e+04	3.230065e-21	
1.000000e+00	8.000000e-01	5.689806e-03	2.844899e-03	-2.637535e-18	0.000000e+00	2.984376e+05	7.898987e+04	6.192956e+04	1.833592e+04	1.829397e+04	9.367189e-20	
0.000000e+00	1.000000e+00	5.689806e-03	2.844899e-03	2.728484e-19	-3.637979e-19	2.984376e+05	7.898987e+04	6.192956e+04	1.833592e+04	1.829397e+04	1.615033e-20	
2.000000e-01	1.000000e+00	5.689806e-03	2.844899e-03	0.000000e+00	0.000000e+00	2.984376e+05	7.898987e+04	6.192956e+04	1.833592e+04	1.829397e+04	0.000000e+00	
4.000000e-01	1.000000e+00	5.689806e-03	2.844899e-03	0.000000e+00	0.000000e+00	2.984376e+05	7.898987e+04	6.192956e+04	1.833592e+04	1.829397e+04	0.000000e+00	
6.000000e-01	1.000000e+00	5.689806e-03	2.844899e-03	1.818989e-19	-3.365130e-18	2.984376e+05	7.898987e+04	6.192956e+04	1.833592e+04	1.829397e+04	1.196869e-19	
8.000000e-01	1.000000e+00	5.689806e-03	2.844899e-03	0.000000e+00	4.456524e-18	2.984376e+05	7.898987e+04	6.192956e+04	1.833592e+04	1.829397e+04	1.582732e-19	
1.000000e+00	1.000000e+00	5.689806e-03	2.844899e-03	0.000000e+00	-3.910827e-18	2.984376e+05	7.898987e+04	6.192956e+04	1.833592e+04	1.829397e+04	1.388928e-19	
1	2	8	7
2	3	9	8
3	4	10	9
4	5	11	10
5	6	12	11
7	8	14	13
8	9	15	14
9	10	16	15
10	11	17	16
11	12	18	17
13	14	20	19
14	15	21	20
15	16	22	21
16	17	23	22
17	18	24	23
19	20	26	25
20	21	27	26
21	22	28	27
22	23	29	28
23	24	30	29
25	26	32	31
26	27	33	32
27	28	34	33
28	29	35	34
29	30	36	35
