TITLE = "Visualization of the solution"
VARIABLES = "x","y","Density_N2","Density_N","Momentum_x","Momentum_y","Energy","Energy_ve","Pressure","Temperature","Temperature_ve","Mach"
ZONE STRANDID=461, SOLUTIONTIME=4.6e-07, NODES= 36, ELEMENTS= 25, DATAPACKING=POINT, ZONETYPE=FEQUADRILATERAL
0.000000e+00	0.000000e+00	5.689806e-03	2.844899e-03	0.000000e+00	-3.637979e-19	2.984376e+05	7.915608e+04	6.184646e+04	1.831131e+04	1.831127e+04	1.292894e-20	
2.000000e-01	0.000000e+00	5.689806e-03	2.844899e-03	0.000000e+00	7.275958e-19	2.984376e+05	7.915608e+04	6.184646e+04	1.831131e+04	1.831127e+04	2.585788e-20	
4.000000e-01	0.000000e+00	5.689806e-03	2.844899e-03	0.000000e+00	-1.818989e-19	2.984376e+05	7.915608e+04	6.184646e+04	1.831131e+04	1.831127e+04	6.464469e-21	
6.000000e-01	0.000000e+00	5.689806e-03	2.844899e-03	-1.818989e-19	-6.548362e-18	2.984376e+05	7.915608e+04	6.184646e+04	1.831131e+04	1.831127e+04	2.328107e-19	
8.000000e-01	0.000000e+00	5.689806e-03	2.844899e-03	0.000000e+00	2.728484e-19	2.984376e+05	7.915608e+04	6.184646e+04	1.831131e+04	1.831127e+04	9.696704e-21	
1.000000e+00	0.000000e+00	5.689806e-03	2.844899e-03	3.637979e-19	1.318767e-17	2.984376e+05	7.915608e+04	6.184646e+04	1.831131e+04	1.831127e+04	4.688523e-19	
0.000000e+00	2.000000e-01	5.689806e-03	2.844899e-03	0.000000e+00	0.000000e+00	2.984376e+05	7.915608e+04	6.184646e+04	1.831131e+04	1.831127e+04	0.000000e+00	
2.000000e-01	2.000000e-01	5.689806e-03	2.844899e-03	2.273737e-18	0.000000e+00	2.984376e+05	7.915608e+04	6.184646e+04	1.831131e+04	1.831127e+04	8.080587e-20	
4.000000e-01	2.000000e-01	5.689806e-03	2.844899e-03	-3.637979e-19	0.000000e+00	2.984376e+05	7.915608e+04	6.184646e+04	1.831131e+04	1.831127e+04	1.292894e-20	
6.000000e-01	2.000000e-01	5.689806e-03	2.844899e-03	0.000000e+00	3.274181e-18	2.984376e+05	7.915608e+04	6.184646e+04	1.831131e+04	1.831127e+04	1.163605e-19	
8.000000e-01	2.000000e-01	5.689806e-03	2.844899e-03	0.000000e+00	-5.957190e-18	2.984376e+05	7.915608e+04	6.184646e+04	1.831131e+04	1.831127e+04	2.117114e-19	
1.000000e+00	2.000000e-01	5.689806e-03	2.844899e-03	0.000000e+00	0.000000e+00	2.984376e+05	7.915608e+04	6.184646e+04	1.831131e+04	1.831127e+04	0.000000e+00	
0.000000e+00	4.000000e-01	5.689806e-03	2.844899e-03	3.547029e-18	1.818989e-19	2.984376e+05	7.915608e+04	6.184646e+04	1.831131e+04	1.831127e+04	1.262228e-19	
2.000000e-01	4.000000e-01	5.689806e-03	2.844899e-03	2.869256e-18	0.000000e+00	2.984376e+05	7.915608e+04	6.184646e+04	1.831131e+04	1.831127e+04	1.019699e-19	
4.000000e-01	4.000000e-01	5.689806e-03	2.844899e-03	1.004792e-18	-1.818989e-19	2.984376e+05	7.915608e+04	6.184646e+04	1.831131e+04	1.831127e+04	3.628952e-20	
6.000000e-01	4.000000e-01	5.689806e-03	2.844899e-03	-3.274181e-18	0.000000e+00	2.984376e+05	7.915608e+04	6.184646e+04	1.831131e+04	1.831127e+04	1.163605e-19	
8.000000e-01	4.000000e-01	5.689806e-03	2.844899e-03	0.000000e+00	-9.094947e-20	2.984376e+05	7.915608e+04	6.184646e+04	1.831131e+04	1.831127e+04	3.232235e-21	
1.000000e+00	4.000000e-01	5.689806e-03	2.844899e-03	0.000000e+00	0.000000e+00	2.984376e+05	7.915608e+04	6.184646e+04	1.831131e+04	1.831127e+04	0.000000e+00	
0.000000e+00	6.000000e-01	5.689806e-03	2.844899e-03	-1.818989e-19	0.000000e+00	2.984376e+05	7.915608e+04	6.184646e+04	1.831131e+04	1.831127e+04	6.464469e-21	
2.000000e-01	6.000000e-01	5.689806e-03	2.844899e-03	-2.310516e-18	0.000000e+00	2.984376e+05	7.915608e+04	6.184646e+04	1.831131e+04	1.831127e+04	8.211295e-20	
4.000000e-01	6.000000e-01	5.689806e-03	2.844899e-03	1.364242e-19	-1.818989e-19	2.984376e+05	7.915608e+04	6.184646e+04	1.831131e+04	1.831127e+04	8.080587e-21	
6.000000e-01	6.000000e-01	5.689806e-03	2.844899e-03	2.128617e-18	0.000000e+00	2.984376e+05	7.915608e+04	6.184646e+04	1.831131e+04	1.831127e+04	7.564848e-20	
8.000000e-01	6.000000e-01	5.689806e-03	2.844899e-03	0.000000e+00	-1.364242e-19	2.984376e+05	7.915608e+04	6.184646e+04	1.831131e+04	1.831127e+04	4.848352e-21	
1.000000e+00	6.000000e-01	5.689806e-03	2.844899e-03	7.003109e-18	0.000000e+00	2.984376e+05	7.915608e+04	6.184646e+04	1.831131e+04	1.831127e+04	2.488821e-19	
0.000000e+00	8.000000e-01	5.689806e-03	2.844899e-03	0.000000e+00	-1.818989e-19	2.984376e+05	7.915608e+04	6.184646e+04	1.831131e+04	1.831127e+04	6.464469e-21	
2.000000e-01	8.000000e-01	5.689806e-03	2.844899e-03	-1.364242e-19	-2.000888e-18	2.984376e+05	7.915608e+04	6.184646e+04	1.831131e+04	1.831127e+04	7.127426e-20	
4.000000e-01	8.000000e-01	5.689806e-03	2.844899e-03	0.000000e+00	0.000000e+00	2.984376e+05	7.915608e+04	6.184646e+04	1.831131e+04	1.831127e+04	0.000000e+00	
6.000000e-01	8.000000e-01	5.689806e-03	2.844899e-03	0.000000e+00	1.364242e-19	2.984376e+05	7.915608e+04	6.184646e+04	1.831131e+04	1.831127e+04	4.848352e-21	
8.000000e-01	8.000000e-01	5.689806e-03	2.844899e-03	0.000000e+00	9.094947e-20	2.984376e+05	7.915608e+04	6.184646e+04	1.831131e+04	1.831127e+04	3.232235e-21	
1.000000e+00	8.000000e-01	5.689806e-03	2.844899e-03	-6.275513e-18	0.000000e+00	2.984376e+05	7.915608e+04	6.184646e+04	1.831131e+04	1.831127e+04	2.230242e-19	
0.000000e+00	1.000000e+00	5.689806e-03	2.844899e-03	2.728484e-19	-3.637979e-19	2.984376e+05	7.915608e+04	6.184646e+04	1.831131e+04	1.831127e+04	1.616117e-20	
2.000000e-01	1.000000e+00	5.689806e-03	2.844899e-03	0.000000e+00	0.000000e+00	2.984376e+05	7.915608e+04	6.184646e+04	1.831131e+04	1.831127e+04	0.000000e+00	
4.000000e-01	1.000000e+00	5.689806e-03	2.844899e-03	0.000000e+00	0.000000e+00	2.984376e+05	7.915608e+04	6.184646e+04	1.831131e+04	1.831127e+04	0.000000e+00	
6.000000e-01	1.000000e+00	5.689806e-03	2.844899e-03	1.818989e-19	-7.003109e-18	2.984376e+05	7.915608e+04	6.184646e+04	1.831131e+04	1.831127e+04	2.489660e-19	
8.000000e-01	1.000000e+00	5.689806e-03	2.844899e-03	0.000000e+00	1.800800e-17	2.984376e+05	7.915608e+04	6.184646e+04	1.831131e+04	1.831127e+04	6.399825e-19	
1.000000e+00	1.000000e+00	5.689806e-03	2.844899e-03	0.000000e+00	-1.318767e-17	2.984376e+05	7.915608e+04	6.184646e+04	1.831131e+04	1.831127e+04	4.686740e-19	
1	2	8	7
2	3	9	8
3	4	10	9
4	5	11	10
5	6	12	11
7	8	14	13
8	9	15	14
9	10	16	15
10	11	17	16
11	12	18	17
13	14	20	19
14	15	21	20
15	16	22	21
16	17	23	22
17	18	24	23
19	20	26	25
20	21	27	26
21	22	28	27
22	23	29	28
23	24	30	29
25	26	32	31
26	27	33	32
27	28	34	33
28	29	35	34
29	30	36	35
