TITLE = "Visualization of the solution"
VARIABLES = "x","y","Density_N2","Density_N","Momentum_x","Momentum_y","Energy","Energy_ve","Pressure","Temperature","Temperature_ve","Mach"
ZONE STRANDID=241, SOLUTIONTIME=2.4e-07, NODES= 36, ELEMENTS= 25, DATAPACKING=POINT, ZONETYPE=FEQUADRILATERAL
0.000000e+00	0.000000e+00	5.689806e-03	2.844899e-03	0.000000e+00	-3.637979e-19	2.984376e+05	7.909933e+04	6.187483e+04	1.831971e+04	1.830537e+04	1.292597e-20	
2.000000e-01	0.000000e+00	5.689806e-03	2.844899e-03	0.000000e+00	7.275958e-19	2.984376e+05	7.909933e+04	6.187483e+04	1.831971e+04	1.830537e+04	2.585195e-20	
4.000000e-01	0.000000e+00	5.689806e-03	2.844899e-03	0.000000e+00	-1.818989e-19	2.984376e+05	7.909933e+04	6.187483e+04	1.831971e+04	1.830537e+04	6.462987e-21	
6.000000e-01	0.000000e+00	5.689806e-03	2.844899e-03	-1.818989e-19	-3.365130e-18	2.984376e+05	7.909933e+04	6.187483e+04	1.831971e+04	1.830537e+04	1.197398e-19	
8.000000e-01	0.000000e+00	5.689806e-03	2.844899e-03	0.000000e+00	2.728484e-19	2.984376e+05	7.909933e+04	6.187483e+04	1.831971e+04	1.830537e+04	9.694481e-21	
1.000000e+00	0.000000e+00	5.689806e-03	2.844899e-03	3.637979e-19	5.729817e-18	2.984376e+05	7.909933e+04	6.187483e+04	1.831971e+04	1.830537e+04	2.039940e-19	
0.000000e+00	2.000000e-01	5.689806e-03	2.844899e-03	0.000000e+00	0.000000e+00	2.984376e+05	7.909933e+04	6.187483e+04	1.831971e+04	1.830537e+04	0.000000e+00	
2.000000e-01	2.000000e-01	5.689806e-03	2.844899e-03	4.547474e-19	0.000000e+00	2.984376e+05	7.909933e+04	6.187483e+04	1.831971e+04	1.830537e+04	1.615747e-20	
4.000000e-01	2.000000e-01	5.689806e-03	2.844899e-03	-3.637979e-19	0.000000e+00	2.984376e+05	7.909933e+04	6.187483e+04	1.831971e+04	1.830537e+04	1.292597e-20	
6.000000e-01	2.000000e-01	5.689806e-03	2.844899e-03	0.000000e+00	1.682565e-18	2.984376e+05	7.909933e+04	6.187483e+04	1.831971e+04	1.830537e+04	5.978263e-20	
8.000000e-01	2.000000e-01	5.689806e-03	2.844899e-03	0.000000e+00	-1.682565e-18	2.984376e+05	7.909933e+04	6.187483e+04	1.831971e+04	1.830537e+04	5.978263e-20	
1.000000e+00	2.000000e-01	5.689806e-03	2.844899e-03	0.000000e+00	0.000000e+00	2.984376e+05	7.909933e+04	6.187483e+04	1.831971e+04	1.830537e+04	0.000000e+00	
0.000000e+00	4.000000e-01	5.689806e-03	2.844899e-03	3.637979e-19	1.818989e-19	2.984376e+05	7.909933e+04	6.187483e+04	1.831971e+04	1.830537e+04	1.445168e-20	
2.000000e-01	4.000000e-01	5.689806e-03	2.844899e-03	1.744262e-18	0.000000e+00	2.984376e+05	7.909933e+04	6.187483e+04	1.831971e+04	1.830537e+04	6.197475e-20	
4.000000e-01	4.000000e-01	5.689806e-03	2.844899e-03	-1.202023e-19	-1.818989e-19	2.984376e+05	7.909933e+04	6.187483e+04	1.831971e+04	1.830537e+04	7.746644e-21	
6.000000e-01	4.000000e-01	5.689806e-03	2.844899e-03	-1.682565e-18	0.000000e+00	2.984376e+05	7.909933e+04	6.187483e+04	1.831971e+04	1.830537e+04	5.978263e-20	
8.000000e-01	4.000000e-01	5.689806e-03	2.844899e-03	0.000000e+00	-9.094947e-20	2.984376e+05	7.909933e+04	6.187483e+04	1.831971e+04	1.830537e+04	3.231494e-21	
1.000000e+00	4.000000e-01	5.689806e-03	2.844899e-03	0.000000e+00	0.000000e+00	2.984376e+05	7.909933e+04	6.187483e+04	1.831971e+04	1.830537e+04	0.000000e+00	
0.000000e+00	6.000000e-01	5.689806e-03	2.844899e-03	-1.818989e-19	0.000000e+00	2.984376e+05	7.909933e+04	6.187483e+04	1.831971e+04	1.830537e+04	6.462987e-21	
2.000000e-01	6.000000e-01	5.689806e-03	2.844899e-03	-2.858793e-19	0.000000e+00	2.984376e+05	7.909933e+04	6.187483e+04	1.831971e+04	1.830537e+04	1.015748e-20	
4.000000e-01	6.000000e-01	5.689806e-03	2.844899e-03	1.364242e-19	-1.818989e-19	2.984376e+05	7.909933e+04	6.187483e+04	1.831971e+04	1.830537e+04	8.078734e-21	
6.000000e-01	6.000000e-01	5.689806e-03	2.844899e-03	1.039804e-19	0.000000e+00	2.984376e+05	7.909933e+04	6.187483e+04	1.831971e+04	1.830537e+04	3.694490e-21	
8.000000e-01	6.000000e-01	5.689806e-03	2.844899e-03	0.000000e+00	-1.364242e-19	2.984376e+05	7.909933e+04	6.187483e+04	1.831971e+04	1.830537e+04	4.847240e-21	
1.000000e+00	6.000000e-01	5.689806e-03	2.844899e-03	3.819878e-18	0.000000e+00	2.984376e+05	7.909933e+04	6.187483e+04	1.831971e+04	1.830537e+04	1.357227e-19	
0.000000e+00	8.000000e-01	5.689806e-03	2.844899e-03	0.000000e+00	-1.818989e-19	2.984376e+05	7.909933e+04	6.187483e+04	1.831971e+04	1.830537e+04	6.462987e-21	
2.000000e-01	8.000000e-01	5.689806e-03	2.844899e-03	-1.364242e-19	-1.818989e-19	2.984376e+05	7.909933e+04	6.187483e+04	1.831971e+04	1.830537e+04	8.078734e-21	
4.000000e-01	8.000000e-01	5.689806e-03	2.844899e-03	0.000000e+00	0.000000e+00	2.984376e+05	7.909933e+04	6.187483e+04	1.831971e+04	1.830537e+04	0.000000e+00	
6.000000e-01	8.000000e-01	5.689806e-03	2.844899e-03	0.000000e+00	1.364242e-19	2.984376e+05	7.909933e+04	6.187483e+04	1.831971e+04	1.830537e+04	4.847240e-21	
8.000000e-01	8.000000e-01	5.689806e-03	2.844899e-03	0.000000e+00	9.094947e-20	2.984376e+05	7.909933e+04	6.187483e+04	1.831971e+04	1.830537e+04	3.231494e-21	
1.000000e+00	8.000000e-01	5.689806e-03	2.844899e-03	-3.092282e-18	0.000000e+00	2.984376e+05	7.909933e+04	6.187483e+04	1.831971e+04	1.830537e+04	1.098708e-19	
0.000000e+00	1.000000e+00	5.689806e-03	2.844899e-03	2.728484e-19	-3.637979e-19	2.984376e+05	7.909933e+04	6.187483e+04	1.831971e+04	1.830537e+04	1.615747e-20	
2.000000e-01	1.000000e+00	5.689806e-03	2.844899e-03	0.000000e+00	0.000000e+00	2.984376e+05	7.909933e+04	6.187483e+04	1.831971e+04	1.830537e+04	0.000000e+00	
4.000000e-01	1.000000e+00	5.689806e-03	2.844899e-03	0.000000e+00	0.000000e+00	2.984376e+05	7.909933e+04	6.187483e+04	1.831971e+04	1.830537e+04	0.000000e+00	
6.000000e-01	1.000000e+00	5.689806e-03	2.844899e-03	1.818989e-19	-3.819878e-18	2.984376e+05	7.909933e+04	6.187483e+04	1.831971e+04	1.830537e+04	1.358765e-19	
8.000000e-01	1.000000e+00	5.689806e-03	2.844899e-03	0.000000e+00	6.275513e-18	2.984376e+05	7.909933e+04	6.187483e+04	1.831971e+04	1.830537e+04	2.229731e-19	
1.000000e+00	1.000000e+00	5.689806e-03	2.844899e-03	0.000000e+00	-5.729817e-18	2.984376e+05	7.909933e+04	6.187483e+04	1.831971e+04	1.830537e+04	2.035841e-19	
1	2	8	7
2	3	9	8
3	4	10	9
4	5	11	10
5	6	12	11
7	8	14	13
8	9	15	14
9	10	16	15
10	11	17	16
11	12	18	17
13	14	20	19
14	15	21	20
15	16	22	21
16	17	23	22
17	18	24	23
19	20	26	25
20	21	27	26
21	22	28	27
22	23	29	28
23	24	30	29
25	26	32	31
26	27	33	32
27	28	34	33
28	29	35	34
29	30	36	35
