TITLE = "Visualization of the solution"
VARIABLES = "x","y","Density_N2","Density_N","Momentum_x","Momentum_y","Energy","Energy_ve","Pressure","Temperature","Temperature_ve","Mach"
ZONE STRANDID=291, SOLUTIONTIME=2.9e-07, NODES= 36, ELEMENTS= 25, DATAPACKING=POINT, ZONETYPE=FEQUADRILATERAL
0.000000e+00	0.000000e+00	5.689806e-03	2.844899e-03	0.000000e+00	-3.637979e-19	2.984376e+05	7.914133e+04	6.185383e+04	1.831350e+04	1.830974e+04	1.292817e-20	
2.000000e-01	0.000000e+00	5.689806e-03	2.844899e-03	0.000000e+00	7.275958e-19	2.984376e+05	7.914133e+04	6.185383e+04	1.831350e+04	1.830974e+04	2.585634e-20	
4.000000e-01	0.000000e+00	5.689806e-03	2.844899e-03	0.000000e+00	-1.818989e-19	2.984376e+05	7.914133e+04	6.185383e+04	1.831350e+04	1.830974e+04	6.464084e-21	
6.000000e-01	0.000000e+00	5.689806e-03	2.844899e-03	-1.818989e-19	-4.183676e-18	2.984376e+05	7.914133e+04	6.185383e+04	1.831350e+04	1.830974e+04	1.488144e-19	
8.000000e-01	0.000000e+00	5.689806e-03	2.844899e-03	0.000000e+00	2.728484e-19	2.984376e+05	7.914133e+04	6.185383e+04	1.831350e+04	1.830974e+04	9.696126e-21	
1.000000e+00	0.000000e+00	5.689806e-03	2.844899e-03	3.637979e-19	7.366907e-18	2.984376e+05	7.914133e+04	6.185383e+04	1.831350e+04	1.830974e+04	2.621144e-19	
0.000000e+00	2.000000e-01	5.689806e-03	2.844899e-03	0.000000e+00	0.000000e+00	2.984376e+05	7.914133e+04	6.185383e+04	1.831350e+04	1.830974e+04	0.000000e+00	
2.000000e-01	2.000000e-01	5.689806e-03	2.844899e-03	8.640200e-19	0.000000e+00	2.984376e+05	7.914133e+04	6.185383e+04	1.831350e+04	1.830974e+04	3.070440e-20	
4.000000e-01	2.000000e-01	5.689806e-03	2.844899e-03	-3.637979e-19	0.000000e+00	2.984376e+05	7.914133e+04	6.185383e+04	1.831350e+04	1.830974e+04	1.292817e-20	
6.000000e-01	2.000000e-01	5.689806e-03	2.844899e-03	0.000000e+00	2.091838e-18	2.984376e+05	7.914133e+04	6.185383e+04	1.831350e+04	1.830974e+04	7.433697e-20	
8.000000e-01	2.000000e-01	5.689806e-03	2.844899e-03	0.000000e+00	-2.683009e-18	2.984376e+05	7.914133e+04	6.185383e+04	1.831350e+04	1.830974e+04	9.534524e-20	
1.000000e+00	2.000000e-01	5.689806e-03	2.844899e-03	0.000000e+00	0.000000e+00	2.984376e+05	7.914133e+04	6.185383e+04	1.831350e+04	1.830974e+04	0.000000e+00	
0.000000e+00	4.000000e-01	5.689806e-03	2.844899e-03	1.182343e-18	1.818989e-19	2.984376e+05	7.914133e+04	6.185383e+04	1.831350e+04	1.830974e+04	4.251088e-20	
2.000000e-01	4.000000e-01	5.689806e-03	2.844899e-03	1.999179e-18	0.000000e+00	2.984376e+05	7.914133e+04	6.185383e+04	1.831350e+04	1.830974e+04	7.104417e-20	
4.000000e-01	4.000000e-01	5.689806e-03	2.844899e-03	1.347145e-19	-1.818989e-19	2.984376e+05	7.914133e+04	6.185383e+04	1.831350e+04	1.830974e+04	8.043798e-21	
6.000000e-01	4.000000e-01	5.689806e-03	2.844899e-03	-2.091838e-18	0.000000e+00	2.984376e+05	7.914133e+04	6.185383e+04	1.831350e+04	1.830974e+04	7.433697e-20	
8.000000e-01	4.000000e-01	5.689806e-03	2.844899e-03	0.000000e+00	-9.094947e-20	2.984376e+05	7.914133e+04	6.185383e+04	1.831350e+04	1.830974e+04	3.232042e-21	
1.000000e+00	4.000000e-01	5.689806e-03	2.844899e-03	0.000000e+00	0.000000e+00	2.984376e+05	7.914133e+04	6.185383e+04	1.831350e+04	1.830974e+04	0.000000e+00	
0.000000e+00	6.000000e-01	5.689806e-03	2.844899e-03	-1.818989e-19	0.000000e+00	2.984376e+05	7.914133e+04	6.185383e+04	1.831350e+04	1.830974e+04	6.464084e-21	
2.000000e-01	6.000000e-01	5.689806e-03	2.844899e-03	-7.764899e-19	0.000000e+00	2.984376e+05	7.914133e+04	6.185383e+04	1.831350e+04	1.830974e+04	2.759387e-20	
4.000000e-01	6.000000e-01	5.689806e-03	2.844899e-03	1.364242e-19	-1.818989e-19	2.984376e+05	7.914133e+04	6.185383e+04	1.831350e+04	1.830974e+04	8.080105e-21	
6.000000e-01	6.000000e-01	5.689806e-03	2.844899e-03	5.945909e-19	0.000000e+00	2.984376e+05	7.914133e+04	6.185383e+04	1.831350e+04	1.830974e+04	2.112979e-20	
8.000000e-01	6.000000e-01	5.689806e-03	2.844899e-03	0.000000e+00	-1.364242e-19	2.984376e+05	7.914133e+04	6.185383e+04	1.831350e+04	1.830974e+04	4.848063e-21	
1.000000e+00	6.000000e-01	5.689806e-03	2.844899e-03	4.638423e-18	0.000000e+00	2.984376e+05	7.914133e+04	6.185383e+04	1.831350e+04	1.830974e+04	1.648341e-19	
0.000000e+00	8.000000e-01	5.689806e-03	2.844899e-03	0.000000e+00	-1.818989e-19	2.984376e+05	7.914133e+04	6.185383e+04	1.831350e+04	1.830974e+04	6.464084e-21	
2.000000e-01	8.000000e-01	5.689806e-03	2.844899e-03	-1.364242e-19	-5.911716e-19	2.984376e+05	7.914133e+04	6.185383e+04	1.831350e+04	1.830974e+04	2.156041e-20	
4.000000e-01	8.000000e-01	5.689806e-03	2.844899e-03	0.000000e+00	0.000000e+00	2.984376e+05	7.914133e+04	6.185383e+04	1.831350e+04	1.830974e+04	0.000000e+00	
6.000000e-01	8.000000e-01	5.689806e-03	2.844899e-03	0.000000e+00	1.364242e-19	2.984376e+05	7.914133e+04	6.185383e+04	1.831350e+04	1.830974e+04	4.848063e-21	
8.000000e-01	8.000000e-01	5.689806e-03	2.844899e-03	0.000000e+00	9.094947e-20	2.984376e+05	7.914133e+04	6.185383e+04	1.831350e+04	1.830974e+04	3.232042e-21	
1.000000e+00	8.000000e-01	5.689806e-03	2.844899e-03	-3.910827e-18	0.000000e+00	2.984376e+05	7.914133e+04	6.185383e+04	1.831350e+04	1.830974e+04	1.389778e-19	
0.000000e+00	1.000000e+00	5.689806e-03	2.844899e-03	2.728484e-19	-3.637979e-19	2.984376e+05	7.914133e+04	6.185383e+04	1.831350e+04	1.830974e+04	1.616021e-20	
2.000000e-01	1.000000e+00	5.689806e-03	2.844899e-03	0.000000e+00	0.000000e+00	2.984376e+05	7.914133e+04	6.185383e+04	1.831350e+04	1.830974e+04	0.000000e+00	
4.000000e-01	1.000000e+00	5.689806e-03	2.844899e-03	0.000000e+00	0.000000e+00	2.984376e+05	7.914133e+04	6.185383e+04	1.831350e+04	1.830974e+04	0.000000e+00	
6.000000e-01	1.000000e+00	5.689806e-03	2.844899e-03	1.818989e-19	-4.638423e-18	2.984376e+05	7.914133e+04	6.185383e+04	1.831350e+04	1.830974e+04	1.649608e-19	
8.000000e-01	1.000000e+00	5.689806e-03	2.844899e-03	0.000000e+00	9.094947e-18	2.984376e+05	7.914133e+04	6.185383e+04	1.831350e+04	1.830974e+04	3.232042e-19	
1.000000e+00	1.000000e+00	5.689806e-03	2.844899e-03	0.000000e+00	-7.366907e-18	2.984376e+05	7.914133e+04	6.185383e+04	1.831350e+04	1.830974e+04	2.617954e-19	
1	2	8	7
2	3	9	8
3	4	10	9
4	5	11	10
5	6	12	11
7	8	14	13
8	9	15	14
9	10	16	15
10	11	17	16
11	12	18	17
13	14	20	19
14	15	21	20
15	16	22	21
16	17	23	22
17	18	24	23
19	20	26	25
20	21	27	26
21	22	28	27
22	23	29	28
23	24	30	29
25	26	32	31
26	27	33	32
27	28	34	33
28	29	35	34
29	30	36	35
