TITLE = "Visualization of the solution"
VARIABLES = "x","y","Density_N2","Density_N","Momentum_x","Momentum_y","Energy","Energy_ve","Pressure","Temperature","Temperature_ve","Mach"
ZONE STRANDID=471, SOLUTIONTIME=4.7e-07, NODES= 36, ELEMENTS= 25, DATAPACKING=POINT, ZONETYPE=FEQUADRILATERAL
0.000000e+00	0.000000e+00	5.689806e-03	2.844899e-03	0.000000e+00	-3.637979e-19	2.984376e+05	7.915611e+04	6.184644e+04	1.831131e+04	1.831128e+04	1.292894e-20	
2.000000e-01	0.000000e+00	5.689806e-03	2.844899e-03	0.000000e+00	7.275958e-19	2.984376e+05	7.915611e+04	6.184644e+04	1.831131e+04	1.831128e+04	2.585788e-20	
4.000000e-01	0.000000e+00	5.689806e-03	2.844899e-03	0.000000e+00	-1.818989e-19	2.984376e+05	7.915611e+04	6.184644e+04	1.831131e+04	1.831128e+04	6.464470e-21	
6.000000e-01	0.000000e+00	5.689806e-03	2.844899e-03	-1.818989e-19	-6.730261e-18	2.984376e+05	7.915611e+04	6.184644e+04	1.831131e+04	1.831128e+04	2.392727e-19	
8.000000e-01	0.000000e+00	5.689806e-03	2.844899e-03	0.000000e+00	2.728484e-19	2.984376e+05	7.915611e+04	6.184644e+04	1.831131e+04	1.831128e+04	9.696706e-21	
1.000000e+00	0.000000e+00	5.689806e-03	2.844899e-03	3.637979e-19	1.346052e-17	2.984376e+05	7.915611e+04	6.184644e+04	1.831131e+04	1.831128e+04	4.785455e-19	
0.000000e+00	2.000000e-01	5.689806e-03	2.844899e-03	0.000000e+00	0.000000e+00	2.984376e+05	7.915611e+04	6.184644e+04	1.831131e+04	1.831128e+04	0.000000e+00	
2.000000e-01	2.000000e-01	5.689806e-03	2.844899e-03	2.410161e-18	0.000000e+00	2.984376e+05	7.915611e+04	6.184644e+04	1.831131e+04	1.831128e+04	8.565423e-20	
4.000000e-01	2.000000e-01	5.689806e-03	2.844899e-03	-3.637979e-19	0.000000e+00	2.984376e+05	7.915611e+04	6.184644e+04	1.831131e+04	1.831128e+04	1.292894e-20	
6.000000e-01	2.000000e-01	5.689806e-03	2.844899e-03	0.000000e+00	3.365130e-18	2.984376e+05	7.915611e+04	6.184644e+04	1.831131e+04	1.831128e+04	1.195927e-19	
8.000000e-01	2.000000e-01	5.689806e-03	2.844899e-03	0.000000e+00	-6.139089e-18	2.984376e+05	7.915611e+04	6.184644e+04	1.831131e+04	1.831128e+04	2.181759e-19	
1.000000e+00	2.000000e-01	5.689806e-03	2.844899e-03	0.000000e+00	0.000000e+00	2.984376e+05	7.915611e+04	6.184644e+04	1.831131e+04	1.831128e+04	0.000000e+00	
0.000000e+00	4.000000e-01	5.689806e-03	2.844899e-03	3.728928e-18	1.818989e-19	2.984376e+05	7.915611e+04	6.184644e+04	1.831131e+04	1.831128e+04	1.326792e-19	
2.000000e-01	4.000000e-01	5.689806e-03	2.844899e-03	2.920459e-18	0.000000e+00	2.984376e+05	7.915611e+04	6.184644e+04	1.831131e+04	1.831128e+04	1.037896e-19	
4.000000e-01	4.000000e-01	5.689806e-03	2.844899e-03	1.055995e-18	-1.818989e-19	2.984376e+05	7.915611e+04	6.184644e+04	1.831131e+04	1.831128e+04	3.808149e-20	
6.000000e-01	4.000000e-01	5.689806e-03	2.844899e-03	-3.365130e-18	0.000000e+00	2.984376e+05	7.915611e+04	6.184644e+04	1.831131e+04	1.831128e+04	1.195927e-19	
8.000000e-01	4.000000e-01	5.689806e-03	2.844899e-03	0.000000e+00	-9.094947e-20	2.984376e+05	7.915611e+04	6.184644e+04	1.831131e+04	1.831128e+04	3.232235e-21	
1.000000e+00	4.000000e-01	5.689806e-03	2.844899e-03	0.000000e+00	0.000000e+00	2.984376e+05	7.915611e+04	6.184644e+04	1.831131e+04	1.831128e+04	0.000000e+00	
0.000000e+00	6.000000e-01	5.689806e-03	2.844899e-03	-1.818989e-19	0.000000e+00	2.984376e+05	7.915611e+04	6.184644e+04	1.831131e+04	1.831128e+04	6.464470e-21	
2.000000e-01	6.000000e-01	5.689806e-03	2.844899e-03	-2.390009e-18	0.000000e+00	2.984376e+05	7.915611e+04	6.184644e+04	1.831131e+04	1.831128e+04	8.493806e-20	
4.000000e-01	6.000000e-01	5.689806e-03	2.844899e-03	1.364242e-19	-1.818989e-19	2.984376e+05	7.915611e+04	6.184644e+04	1.831131e+04	1.831128e+04	8.080588e-21	
6.000000e-01	6.000000e-01	5.689806e-03	2.844899e-03	2.208110e-18	0.000000e+00	2.984376e+05	7.915611e+04	6.184644e+04	1.831131e+04	1.831128e+04	7.847359e-20	
8.000000e-01	6.000000e-01	5.689806e-03	2.844899e-03	0.000000e+00	-1.364242e-19	2.984376e+05	7.915611e+04	6.184644e+04	1.831131e+04	1.831128e+04	4.848353e-21	
1.000000e+00	6.000000e-01	5.689806e-03	2.844899e-03	7.185008e-18	0.000000e+00	2.984376e+05	7.915611e+04	6.184644e+04	1.831131e+04	1.831128e+04	2.553466e-19	
0.000000e+00	8.000000e-01	5.689806e-03	2.844899e-03	0.000000e+00	-1.818989e-19	2.984376e+05	7.915611e+04	6.184644e+04	1.831131e+04	1.831128e+04	6.464470e-21	
2.000000e-01	8.000000e-01	5.689806e-03	2.844899e-03	-1.364242e-19	-2.137313e-18	2.984376e+05	7.915611e+04	6.184644e+04	1.831131e+04	1.831128e+04	7.611210e-20	
4.000000e-01	8.000000e-01	5.689806e-03	2.844899e-03	0.000000e+00	0.000000e+00	2.984376e+05	7.915611e+04	6.184644e+04	1.831131e+04	1.831128e+04	0.000000e+00	
6.000000e-01	8.000000e-01	5.689806e-03	2.844899e-03	0.000000e+00	1.364242e-19	2.984376e+05	7.915611e+04	6.184644e+04	1.831131e+04	1.831128e+04	4.848353e-21	
8.000000e-01	8.000000e-01	5.689806e-03	2.844899e-03	0.000000e+00	9.094947e-20	2.984376e+05	7.915611e+04	6.184644e+04	1.831131e+04	1.831128e+04	3.232235e-21	
1.000000e+00	8.000000e-01	5.689806e-03	2.844899e-03	-6.457412e-18	0.000000e+00	2.984376e+05	7.915611e+04	6.184644e+04	1.831131e+04	1.831128e+04	2.294887e-19	
0.000000e+00	1.000000e+00	5.689806e-03	2.844899e-03	2.728484e-19	-3.637979e-19	2.984376e+05	7.915611e+04	6.184644e+04	1.831131e+04	1.831128e+04	1.616118e-20	
2.000000e-01	1.000000e+00	5.689806e-03	2.844899e-03	0.000000e+00	0.000000e+00	2.984376e+05	7.915611e+04	6.184644e+04	1.831131e+04	1.831128e+04	0.000000e+00	
4.000000e-01	1.000000e+00	5.689806e-03	2.844899e-03	0.000000e+00	0.000000e+00	2.984376e+05	7.915611e+04	6.184644e+04	1.831131e+04	1.831128e+04	0.000000e+00	
6.000000e-01	1.000000e+00	5.689806e-03	2.844899e-03	1.818989e-19	-7.185008e-18	2.984376e+05	7.915611e+04	6.184644e+04	1.831131e+04	1.831128e+04	2.554284e-19	
8.000000e-01	1.000000e+00	5.689806e-03	2.844899e-03	0.000000e+00	1.855369e-17	2.984376e+05	7.915611e+04	6.184644e+04	1.831131e+04	1.831128e+04	6.593760e-19	
1.000000e+00	1.000000e+00	5.689806e-03	2.844899e-03	0.000000e+00	-1.346052e-17	2.984376e+05	7.915611e+04	6.184644e+04	1.831131e+04	1.831128e+04	4.783708e-19	
1	2	8	7
2	3	9	8
3	4	10	9
4	5	11	10
5	6	12	11
7	8	14	13
8	9	15	14
9	10	16	15
10	11	17	16
11	12	18	17
13	14	20	19
14	15	21	20
15	16	22	21
16	17	23	22
17	18	24	23
19	20	26	25
20	21	27	26
21	22	28	27
22	23	29	28
23	24	30	29
25	26	32	31
26	27	33	32
27	28	34	33
28	29	35	34
29	30	36	35
