TITLE = "Visualization of the solution"
VARIABLES = "x","y","Density_N2","Density_N","Momentum_x","Momentum_y","Energy","Energy_ve","Pressure","Temperature","Temperature_ve","Mach"
ZONE STRANDID=141, SOLUTIONTIME=1.4e-07, NODES= 36, ELEMENTS= 25, DATAPACKING=POINT, ZONETYPE=FEQUADRILATERAL
0.000000e+00	0.000000e+00	5.689806e-03	2.844899e-03	0.000000e+00	-3.637979e-19	2.984376e+05	7.831808e+04	6.226546e+04	1.843537e+04	1.822390e+04	1.288536e-20	
2.000000e-01	0.000000e+00	5.689806e-03	2.844899e-03	0.000000e+00	7.275958e-19	2.984376e+05	7.831808e+04	6.226546e+04	1.843537e+04	1.822390e+04	2.577073e-20	
4.000000e-01	0.000000e+00	5.689806e-03	2.844899e-03	0.000000e+00	-1.818989e-19	2.984376e+05	7.831808e+04	6.226546e+04	1.843537e+04	1.822390e+04	6.442682e-21	
6.000000e-01	0.000000e+00	5.689806e-03	2.844899e-03	-1.818989e-19	-1.455192e-18	2.984376e+05	7.831808e+04	6.226546e+04	1.843537e+04	1.822390e+04	5.194256e-20	
8.000000e-01	0.000000e+00	5.689806e-03	2.844899e-03	0.000000e+00	2.728484e-19	2.984376e+05	7.831808e+04	6.226546e+04	1.843537e+04	1.822390e+04	9.664023e-21	
1.000000e+00	0.000000e+00	5.689806e-03	2.844899e-03	3.637979e-19	1.637090e-18	2.984376e+05	7.831808e+04	6.226546e+04	1.843537e+04	1.822390e+04	5.939860e-20	
0.000000e+00	2.000000e-01	5.689806e-03	2.844899e-03	0.000000e+00	0.000000e+00	2.984376e+05	7.831808e+04	6.226546e+04	1.843537e+04	1.822390e+04	0.000000e+00	
2.000000e-01	2.000000e-01	5.689806e-03	2.844899e-03	-4.092726e-19	0.000000e+00	2.984376e+05	7.831808e+04	6.226546e+04	1.843537e+04	1.822390e+04	1.449604e-20	
4.000000e-01	2.000000e-01	5.689806e-03	2.844899e-03	-3.637979e-19	0.000000e+00	2.984376e+05	7.831808e+04	6.226546e+04	1.843537e+04	1.822390e+04	1.288536e-20	
6.000000e-01	2.000000e-01	5.689806e-03	2.844899e-03	0.000000e+00	7.275958e-19	2.984376e+05	7.831808e+04	6.226546e+04	1.843537e+04	1.822390e+04	2.577073e-20	
8.000000e-01	2.000000e-01	5.689806e-03	2.844899e-03	0.000000e+00	-3.637979e-19	2.984376e+05	7.831808e+04	6.226546e+04	1.843537e+04	1.822390e+04	1.288536e-20	
1.000000e+00	2.000000e-01	5.689806e-03	2.844899e-03	0.000000e+00	0.000000e+00	2.984376e+05	7.831808e+04	6.226546e+04	1.843537e+04	1.822390e+04	0.000000e+00	
0.000000e+00	4.000000e-01	5.689806e-03	2.844899e-03	-1.546141e-18	1.818989e-19	2.984376e+05	7.831808e+04	6.226546e+04	1.843537e+04	1.822390e+04	5.514048e-20	
2.000000e-01	4.000000e-01	5.689806e-03	2.844899e-03	1.252601e-18	0.000000e+00	2.984376e+05	7.831808e+04	6.226546e+04	1.843537e+04	1.822390e+04	4.436591e-20	
4.000000e-01	4.000000e-01	5.689806e-03	2.844899e-03	-6.118630e-19	-1.818989e-19	2.984376e+05	7.831808e+04	6.226546e+04	1.843537e+04	1.822390e+04	2.260898e-20	
6.000000e-01	4.000000e-01	5.689806e-03	2.844899e-03	-7.275958e-19	0.000000e+00	2.984376e+05	7.831808e+04	6.226546e+04	1.843537e+04	1.822390e+04	2.577073e-20	
8.000000e-01	4.000000e-01	5.689806e-03	2.844899e-03	0.000000e+00	-9.094947e-20	2.984376e+05	7.831808e+04	6.226546e+04	1.843537e+04	1.822390e+04	3.221341e-21	
1.000000e+00	4.000000e-01	5.689806e-03	2.844899e-03	0.000000e+00	0.000000e+00	2.984376e+05	7.831808e+04	6.226546e+04	1.843537e+04	1.822390e+04	0.000000e+00	
0.000000e+00	6.000000e-01	5.689806e-03	2.844899e-03	-1.818989e-19	0.000000e+00	2.984376e+05	7.831808e+04	6.226546e+04	1.843537e+04	1.822390e+04	6.442682e-21	
2.000000e-01	6.000000e-01	5.689806e-03	2.844899e-03	4.956664e-20	0.000000e+00	2.984376e+05	7.831808e+04	6.226546e+04	1.843537e+04	1.822390e+04	1.755602e-21	
4.000000e-01	6.000000e-01	5.689806e-03	2.844899e-03	1.364242e-19	-1.818989e-19	2.984376e+05	7.831808e+04	6.226546e+04	1.843537e+04	1.822390e+04	8.053353e-21	
6.000000e-01	6.000000e-01	5.689806e-03	2.844899e-03	-2.314656e-19	0.000000e+00	2.984376e+05	7.831808e+04	6.226546e+04	1.843537e+04	1.822390e+04	8.198284e-21	
8.000000e-01	6.000000e-01	5.689806e-03	2.844899e-03	0.000000e+00	-1.364242e-19	2.984376e+05	7.831808e+04	6.226546e+04	1.843537e+04	1.822390e+04	4.832012e-21	
1.000000e+00	6.000000e-01	5.689806e-03	2.844899e-03	1.909939e-18	0.000000e+00	2.984376e+05	7.831808e+04	6.226546e+04	1.843537e+04	1.822390e+04	6.764816e-20	
0.000000e+00	8.000000e-01	5.689806e-03	2.844899e-03	0.000000e+00	-1.818989e-19	2.984376e+05	7.831808e+04	6.226546e+04	1.843537e+04	1.822390e+04	6.442682e-21	
2.000000e-01	8.000000e-01	5.689806e-03	2.844899e-03	-1.364242e-19	6.821210e-19	2.984376e+05	7.831808e+04	6.226546e+04	1.843537e+04	1.822390e+04	2.463852e-20	
4.000000e-01	8.000000e-01	5.689806e-03	2.844899e-03	0.000000e+00	0.000000e+00	2.984376e+05	7.831808e+04	6.226546e+04	1.843537e+04	1.822390e+04	0.000000e+00	
6.000000e-01	8.000000e-01	5.689806e-03	2.844899e-03	0.000000e+00	1.364242e-19	2.984376e+05	7.831808e+04	6.226546e+04	1.843537e+04	1.822390e+04	4.832012e-21	
8.000000e-01	8.000000e-01	5.689806e-03	2.844899e-03	0.000000e+00	9.094947e-20	2.984376e+05	7.831808e+04	6.226546e+04	1.843537e+04	1.822390e+04	3.221341e-21	
1.000000e+00	8.000000e-01	5.689806e-03	2.844899e-03	-1.182343e-18	0.000000e+00	2.984376e+05	7.831808e+04	6.226546e+04	1.843537e+04	1.822390e+04	4.187743e-20	
0.000000e+00	1.000000e+00	5.689806e-03	2.844899e-03	2.728484e-19	-3.637979e-19	2.984376e+05	7.831808e+04	6.226546e+04	1.843537e+04	1.822390e+04	1.610671e-20	
2.000000e-01	1.000000e+00	5.689806e-03	2.844899e-03	0.000000e+00	0.000000e+00	2.984376e+05	7.831808e+04	6.226546e+04	1.843537e+04	1.822390e+04	0.000000e+00	
4.000000e-01	1.000000e+00	5.689806e-03	2.844899e-03	0.000000e+00	0.000000e+00	2.984376e+05	7.831808e+04	6.226546e+04	1.843537e+04	1.822390e+04	0.000000e+00	
6.000000e-01	1.000000e+00	5.689806e-03	2.844899e-03	1.818989e-19	-1.909939e-18	2.984376e+05	7.831808e+04	6.226546e+04	1.843537e+04	1.822390e+04	6.795427e-20	
8.000000e-01	1.000000e+00	5.689806e-03	2.844899e-03	0.000000e+00	1.728040e-18	2.984376e+05	7.831808e+04	6.226546e+04	1.843537e+04	1.822390e+04	6.120548e-20	
1.000000e+00	1.000000e+00	5.689806e-03	2.844899e-03	0.000000e+00	-1.637090e-18	2.984376e+05	7.831808e+04	6.226546e+04	1.843537e+04	1.822390e+04	5.798414e-20	
1	2	8	7
2	3	9	8
3	4	10	9
4	5	11	10
5	6	12	11
7	8	14	13
8	9	15	14
9	10	16	15
10	11	17	16
11	12	18	17
13	14	20	19
14	15	21	20
15	16	22	21
16	17	23	22
17	18	24	23
19	20	26	25
20	21	27	26
21	22	28	27
22	23	29	28
23	24	30	29
25	26	32	31
26	27	33	32
27	28	34	33
28	29	35	34
29	30	36	35
