TITLE = "Visualization of the solution"
VARIABLES = "x","y","Density_N2","Density_N","Momentum_x","Momentum_y","Energy","Energy_ve","Pressure","Temperature","Temperature_ve","Mach"
ZONE STRANDID=121, SOLUTIONTIME=1.2e-07, NODES= 36, ELEMENTS= 25, DATAPACKING=POINT, ZONETYPE=FEQUADRILATERAL
0.000000e+00	0.000000e+00	5.689806e-03	2.844899e-03	0.000000e+00	-3.637979e-19	2.984376e+05	7.771104e+04	6.256897e+04	1.852523e+04	1.816038e+04	1.285407e-20	
2.000000e-01	0.000000e+00	5.689806e-03	2.844899e-03	0.000000e+00	7.275958e-19	2.984376e+05	7.771104e+04	6.256897e+04	1.852523e+04	1.816038e+04	2.570815e-20	
4.000000e-01	0.000000e+00	5.689806e-03	2.844899e-03	0.000000e+00	-1.818989e-19	2.984376e+05	7.771104e+04	6.256897e+04	1.852523e+04	1.816038e+04	6.427037e-21	
6.000000e-01	0.000000e+00	5.689806e-03	2.844899e-03	-1.818989e-19	-8.185452e-19	2.984376e+05	7.771104e+04	6.256897e+04	1.852523e+04	1.816038e+04	2.962718e-20	
8.000000e-01	0.000000e+00	5.689806e-03	2.844899e-03	0.000000e+00	2.728484e-19	2.984376e+05	7.771104e+04	6.256897e+04	1.852523e+04	1.816038e+04	9.640555e-21	
1.000000e+00	0.000000e+00	5.689806e-03	2.844899e-03	3.637979e-19	1.000444e-18	2.984376e+05	7.771104e+04	6.256897e+04	1.852523e+04	1.816038e+04	3.761327e-20	
0.000000e+00	2.000000e-01	5.689806e-03	2.844899e-03	0.000000e+00	0.000000e+00	2.984376e+05	7.771104e+04	6.256897e+04	1.852523e+04	1.816038e+04	0.000000e+00	
2.000000e-01	2.000000e-01	5.689806e-03	2.844899e-03	-5.002221e-19	0.000000e+00	2.984376e+05	7.771104e+04	6.256897e+04	1.852523e+04	1.816038e+04	1.767435e-20	
4.000000e-01	2.000000e-01	5.689806e-03	2.844899e-03	-3.637979e-19	0.000000e+00	2.984376e+05	7.771104e+04	6.256897e+04	1.852523e+04	1.816038e+04	1.285407e-20	
6.000000e-01	2.000000e-01	5.689806e-03	2.844899e-03	0.000000e+00	4.092726e-19	2.984376e+05	7.771104e+04	6.256897e+04	1.852523e+04	1.816038e+04	1.446083e-20	
8.000000e-01	2.000000e-01	5.689806e-03	2.844899e-03	0.000000e+00	-2.728484e-19	2.984376e+05	7.771104e+04	6.256897e+04	1.852523e+04	1.816038e+04	9.640555e-21	
1.000000e+00	2.000000e-01	5.689806e-03	2.844899e-03	0.000000e+00	0.000000e+00	2.984376e+05	7.771104e+04	6.256897e+04	1.852523e+04	1.816038e+04	0.000000e+00	
0.000000e+00	4.000000e-01	5.689806e-03	2.844899e-03	-2.182787e-18	1.818989e-19	2.984376e+05	7.771104e+04	6.256897e+04	1.852523e+04	1.816038e+04	7.739177e-20	
2.000000e-01	4.000000e-01	5.689806e-03	2.844899e-03	1.165862e-18	0.000000e+00	2.984376e+05	7.771104e+04	6.256897e+04	1.852523e+04	1.816038e+04	4.119341e-20	
4.000000e-01	4.000000e-01	5.689806e-03	2.844899e-03	-6.986021e-19	-1.818989e-19	2.984376e+05	7.771104e+04	6.256897e+04	1.852523e+04	1.816038e+04	2.550672e-20	
6.000000e-01	4.000000e-01	5.689806e-03	2.844899e-03	-4.092726e-19	0.000000e+00	2.984376e+05	7.771104e+04	6.256897e+04	1.852523e+04	1.816038e+04	1.446083e-20	
8.000000e-01	4.000000e-01	5.689806e-03	2.844899e-03	0.000000e+00	-9.094947e-20	2.984376e+05	7.771104e+04	6.256897e+04	1.852523e+04	1.816038e+04	3.213518e-21	
1.000000e+00	4.000000e-01	5.689806e-03	2.844899e-03	0.000000e+00	0.000000e+00	2.984376e+05	7.771104e+04	6.256897e+04	1.852523e+04	1.816038e+04	0.000000e+00	
0.000000e+00	6.000000e-01	5.689806e-03	2.844899e-03	-1.818989e-19	0.000000e+00	2.984376e+05	7.771104e+04	6.256897e+04	1.852523e+04	1.816038e+04	6.427037e-21	
2.000000e-01	6.000000e-01	5.689806e-03	2.844899e-03	-3.296220e-20	0.000000e+00	2.984376e+05	7.771104e+04	6.256897e+04	1.852523e+04	1.816038e+04	1.164654e-21	
4.000000e-01	6.000000e-01	5.689806e-03	2.844899e-03	1.364242e-19	-1.818989e-19	2.984376e+05	7.771104e+04	6.256897e+04	1.852523e+04	1.816038e+04	8.033796e-21	
6.000000e-01	6.000000e-01	5.689806e-03	2.844899e-03	-1.489367e-19	0.000000e+00	2.984376e+05	7.771104e+04	6.256897e+04	1.852523e+04	1.816038e+04	5.262383e-21	
8.000000e-01	6.000000e-01	5.689806e-03	2.844899e-03	0.000000e+00	-1.364242e-19	2.984376e+05	7.771104e+04	6.256897e+04	1.852523e+04	1.816038e+04	4.820278e-21	
1.000000e+00	6.000000e-01	5.689806e-03	2.844899e-03	1.273293e-18	0.000000e+00	2.984376e+05	7.771104e+04	6.256897e+04	1.852523e+04	1.816038e+04	4.498926e-20	
0.000000e+00	8.000000e-01	5.689806e-03	2.844899e-03	0.000000e+00	-1.818989e-19	2.984376e+05	7.771104e+04	6.256897e+04	1.852523e+04	1.816038e+04	6.427037e-21	
2.000000e-01	8.000000e-01	5.689806e-03	2.844899e-03	-1.364242e-19	7.730705e-19	2.984376e+05	7.771104e+04	6.256897e+04	1.852523e+04	1.816038e+04	2.773696e-20	
4.000000e-01	8.000000e-01	5.689806e-03	2.844899e-03	0.000000e+00	0.000000e+00	2.984376e+05	7.771104e+04	6.256897e+04	1.852523e+04	1.816038e+04	0.000000e+00	
6.000000e-01	8.000000e-01	5.689806e-03	2.844899e-03	0.000000e+00	1.364242e-19	2.984376e+05	7.771104e+04	6.256897e+04	1.852523e+04	1.816038e+04	4.820278e-21	
8.000000e-01	8.000000e-01	5.689806e-03	2.844899e-03	0.000000e+00	9.094947e-20	2.984376e+05	7.771104e+04	6.256897e+04	1.852523e+04	1.816038e+04	3.213518e-21	
1.000000e+00	8.000000e-01	5.689806e-03	2.844899e-03	-5.456968e-19	0.000000e+00	2.984376e+05	7.771104e+04	6.256897e+04	1.852523e+04	1.816038e+04	1.928111e-20	
0.000000e+00	1.000000e+00	5.689806e-03	2.844899e-03	2.728484e-19	-3.637979e-19	2.984376e+05	7.771104e+04	6.256897e+04	1.852523e+04	1.816038e+04	1.606759e-20	
2.000000e-01	1.000000e+00	5.689806e-03	2.844899e-03	0.000000e+00	0.000000e+00	2.984376e+05	7.771104e+04	6.256897e+04	1.852523e+04	1.816038e+04	0.000000e+00	
4.000000e-01	1.000000e+00	5.689806e-03	2.844899e-03	0.000000e+00	0.000000e+00	2.984376e+05	7.771104e+04	6.256897e+04	1.852523e+04	1.816038e+04	0.000000e+00	
6.000000e-01	1.000000e+00	5.689806e-03	2.844899e-03	1.818989e-19	-1.273293e-18	2.984376e+05	7.771104e+04	6.256897e+04	1.852523e+04	1.816038e+04	4.544601e-20	
8.000000e-01	1.000000e+00	5.689806e-03	2.844899e-03	0.000000e+00	9.094947e-19	2.984376e+05	7.771104e+04	6.256897e+04	1.852523e+04	1.816038e+04	3.213518e-20	
1.000000e+00	1.000000e+00	5.689806e-03	2.844899e-03	0.000000e+00	-1.000444e-18	2.984376e+05	7.771104e+04	6.256897e+04	1.852523e+04	1.816038e+04	3.534870e-20	
1	2	8	7
2	3	9	8
3	4	10	9
4	5	11	10
5	6	12	11
7	8	14	13
8	9	15	14
9	10	16	15
10	11	17	16
11	12	18	17
13	14	20	19
14	15	21	20
15	16	22	21
16	17	23	22
17	18	24	23
19	20	26	25
20	21	27	26
21	22	28	27
22	23	29	28
23	24	30	29
25	26	32	31
26	27	33	32
27	28	34	33
28	29	35	34
29	30	36	35
