TITLE = "Visualization of the solution"
VARIABLES = "x","y","Density_N2","Density_N","Momentum_x","Momentum_y","Energy","Energy_ve","Pressure","Temperature","Temperature_ve","Mach"
ZONE STRANDID=1111, SOLUTIONTIME=1.11e-06, NODES= 36, ELEMENTS= 25, DATAPACKING=POINT, ZONETYPE=FEQUADRILATERAL
0.000000e+00	0.000000e+00	5.689806e-03	2.844899e-03	0.000000e+00	-3.637979e-19	2.984376e+05	7.915623e+04	6.184638e+04	1.831129e+04	1.831129e+04	1.292895e-20	
2.000000e-01	0.000000e+00	5.689806e-03	2.844899e-03	0.000000e+00	7.275958e-19	2.984376e+05	7.915623e+04	6.184638e+04	1.831129e+04	1.831129e+04	2.585789e-20	
4.000000e-01	0.000000e+00	5.689806e-03	2.844899e-03	0.000000e+00	-1.818989e-19	2.984376e+05	7.915623e+04	6.184638e+04	1.831129e+04	1.831129e+04	6.464474e-21	
6.000000e-01	0.000000e+00	5.689806e-03	2.844899e-03	-1.818989e-19	-1.928129e-17	2.984376e+05	7.915623e+04	6.184638e+04	1.831129e+04	1.831129e+04	6.852647e-19	
8.000000e-01	0.000000e+00	5.689806e-03	2.844899e-03	0.000000e+00	2.728484e-19	2.984376e+05	7.915623e+04	6.184638e+04	1.831129e+04	1.831129e+04	9.696710e-21	
1.000000e+00	0.000000e+00	5.689806e-03	2.844899e-03	3.637979e-19	3.610694e-17	2.984376e+05	7.915623e+04	6.184638e+04	1.831129e+04	1.831129e+04	1.283263e-18	
0.000000e+00	2.000000e-01	5.689806e-03	2.844899e-03	0.000000e+00	0.000000e+00	2.984376e+05	7.915623e+04	6.184638e+04	1.831129e+04	1.831129e+04	0.000000e+00	
2.000000e-01	2.000000e-01	5.689806e-03	2.844899e-03	8.230927e-18	0.000000e+00	2.984376e+05	7.915623e+04	6.184638e+04	1.831129e+04	1.831129e+04	2.925174e-19	
4.000000e-01	2.000000e-01	5.689806e-03	2.844899e-03	-3.637979e-19	0.000000e+00	2.984376e+05	7.915623e+04	6.184638e+04	1.831129e+04	1.831129e+04	1.292895e-20	
6.000000e-01	2.000000e-01	5.689806e-03	2.844899e-03	0.000000e+00	9.640644e-18	2.984376e+05	7.915623e+04	6.184638e+04	1.831129e+04	1.831129e+04	3.426171e-19	
8.000000e-01	2.000000e-01	5.689806e-03	2.844899e-03	0.000000e+00	-1.828084e-17	2.984376e+05	7.915623e+04	6.184638e+04	1.831129e+04	1.831129e+04	6.496796e-19	
1.000000e+00	2.000000e-01	5.689806e-03	2.844899e-03	0.000000e+00	0.000000e+00	2.984376e+05	7.915623e+04	6.184638e+04	1.831129e+04	1.831129e+04	0.000000e+00	
0.000000e+00	4.000000e-01	5.689806e-03	2.844899e-03	1.627996e-17	1.818989e-19	2.984376e+05	7.915623e+04	6.184638e+04	1.831129e+04	1.831129e+04	5.786065e-19	
2.000000e-01	4.000000e-01	5.689806e-03	2.844899e-03	6.197499e-18	0.000000e+00	2.984376e+05	7.915623e+04	6.184638e+04	1.831129e+04	1.831129e+04	2.202518e-19	
4.000000e-01	4.000000e-01	5.689806e-03	2.844899e-03	4.333035e-18	-1.818989e-19	2.984376e+05	7.915623e+04	6.184638e+04	1.831129e+04	1.831129e+04	1.541266e-19	
6.000000e-01	4.000000e-01	5.689806e-03	2.844899e-03	-9.640644e-18	0.000000e+00	2.984376e+05	7.915623e+04	6.184638e+04	1.831129e+04	1.831129e+04	3.426171e-19	
8.000000e-01	4.000000e-01	5.689806e-03	2.844899e-03	0.000000e+00	-9.094947e-20	2.984376e+05	7.915623e+04	6.184638e+04	1.831129e+04	1.831129e+04	3.232237e-21	
1.000000e+00	4.000000e-01	5.689806e-03	2.844899e-03	0.000000e+00	0.000000e+00	2.984376e+05	7.915623e+04	6.184638e+04	1.831129e+04	1.831129e+04	0.000000e+00	
0.000000e+00	6.000000e-01	5.689806e-03	2.844899e-03	-1.818989e-19	0.000000e+00	2.984376e+05	7.915623e+04	6.184638e+04	1.831129e+04	1.831129e+04	6.464474e-21	
2.000000e-01	6.000000e-01	5.689806e-03	2.844899e-03	-7.977683e-18	0.000000e+00	2.984376e+05	7.915623e+04	6.184638e+04	1.831129e+04	1.831129e+04	2.835174e-19	
4.000000e-01	6.000000e-01	5.689806e-03	2.844899e-03	1.364242e-19	-1.818989e-19	2.984376e+05	7.915623e+04	6.184638e+04	1.831129e+04	1.831129e+04	8.080592e-21	
6.000000e-01	6.000000e-01	5.689806e-03	2.844899e-03	7.795784e-18	0.000000e+00	2.984376e+05	7.915623e+04	6.184638e+04	1.831129e+04	1.831129e+04	2.770529e-19	
8.000000e-01	6.000000e-01	5.689806e-03	2.844899e-03	0.000000e+00	-1.364242e-19	2.984376e+05	7.915623e+04	6.184638e+04	1.831129e+04	1.831129e+04	4.848355e-21	
1.000000e+00	6.000000e-01	5.689806e-03	2.844899e-03	1.973604e-17	0.000000e+00	2.984376e+05	7.915623e+04	6.184638e+04	1.831129e+04	1.831129e+04	7.013954e-19	
0.000000e+00	8.000000e-01	5.689806e-03	2.844899e-03	0.000000e+00	-1.818989e-19	2.984376e+05	7.915623e+04	6.184638e+04	1.831129e+04	1.831129e+04	6.464474e-21	
2.000000e-01	8.000000e-01	5.689806e-03	2.844899e-03	-1.364242e-19	-7.958079e-18	2.984376e+05	7.915623e+04	6.184638e+04	1.831129e+04	1.831129e+04	2.828623e-19	
4.000000e-01	8.000000e-01	5.689806e-03	2.844899e-03	0.000000e+00	0.000000e+00	2.984376e+05	7.915623e+04	6.184638e+04	1.831129e+04	1.831129e+04	0.000000e+00	
6.000000e-01	8.000000e-01	5.689806e-03	2.844899e-03	0.000000e+00	1.364242e-19	2.984376e+05	7.915623e+04	6.184638e+04	1.831129e+04	1.831129e+04	4.848355e-21	
8.000000e-01	8.000000e-01	5.689806e-03	2.844899e-03	0.000000e+00	9.094947e-20	2.984376e+05	7.915623e+04	6.184638e+04	1.831129e+04	1.831129e+04	3.232237e-21	
1.000000e+00	8.000000e-01	5.689806e-03	2.844899e-03	-1.900844e-17	0.000000e+00	2.984376e+05	7.915623e+04	6.184638e+04	1.831129e+04	1.831129e+04	6.755375e-19	
0.000000e+00	1.000000e+00	5.689806e-03	2.844899e-03	2.728484e-19	-3.637979e-19	2.984376e+05	7.915623e+04	6.184638e+04	1.831129e+04	1.831129e+04	1.616118e-20	
2.000000e-01	1.000000e+00	5.689806e-03	2.844899e-03	0.000000e+00	0.000000e+00	2.984376e+05	7.915623e+04	6.184638e+04	1.831129e+04	1.831129e+04	0.000000e+00	
4.000000e-01	1.000000e+00	5.689806e-03	2.844899e-03	0.000000e+00	0.000000e+00	2.984376e+05	7.915623e+04	6.184638e+04	1.831129e+04	1.831129e+04	0.000000e+00	
6.000000e-01	1.000000e+00	5.689806e-03	2.844899e-03	1.818989e-19	-1.973604e-17	2.984376e+05	7.915623e+04	6.184638e+04	1.831129e+04	1.831129e+04	7.014252e-19	
8.000000e-01	1.000000e+00	5.689806e-03	2.844899e-03	0.000000e+00	5.538823e-17	2.984376e+05	7.915623e+04	6.184638e+04	1.831129e+04	1.831129e+04	1.968432e-18	
1.000000e+00	1.000000e+00	5.689806e-03	2.844899e-03	0.000000e+00	-3.610694e-17	2.984376e+05	7.915623e+04	6.184638e+04	1.831129e+04	1.831129e+04	1.283198e-18	
1	2	8	7
2	3	9	8
3	4	10	9
4	5	11	10
5	6	12	11
7	8	14	13
8	9	15	14
9	10	16	15
10	11	17	16
11	12	18	17
13	14	20	19
14	15	21	20
15	16	22	21
16	17	23	22
17	18	24	23
19	20	26	25
20	21	27	26
21	22	28	27
22	23	29	28
23	24	30	29
25	26	32	31
26	27	33	32
27	28	34	33
28	29	35	34
29	30	36	35
