TITLE = "Visualization of the solution"
VARIABLES = "x","y","Density_N2","Density_N","Momentum_x","Momentum_y","Energy","Energy_ve","Pressure","Temperature","Temperature_ve","Mach"
ZONE STRANDID=881, SOLUTIONTIME=8.8e-07, NODES= 36, ELEMENTS= 25, DATAPACKING=POINT, ZONETYPE=FEQUADRILATERAL
0.000000e+00	0.000000e+00	5.689806e-03	2.844899e-03	0.000000e+00	-3.637979e-19	2.984376e+05	7.915623e+04	6.184638e+04	1.831129e+04	1.831129e+04	1.292895e-20	
2.000000e-01	0.000000e+00	5.689806e-03	2.844899e-03	0.000000e+00	7.275958e-19	2.984376e+05	7.915623e+04	6.184638e+04	1.831129e+04	1.831129e+04	2.585789e-20	
4.000000e-01	0.000000e+00	5.689806e-03	2.844899e-03	0.000000e+00	-1.818989e-19	2.984376e+05	7.915623e+04	6.184638e+04	1.831129e+04	1.831129e+04	6.464474e-21	
6.000000e-01	0.000000e+00	5.689806e-03	2.844899e-03	-1.818989e-19	-1.527951e-17	2.984376e+05	7.915623e+04	6.184638e+04	1.831129e+04	1.831129e+04	5.430543e-19	
8.000000e-01	0.000000e+00	5.689806e-03	2.844899e-03	0.000000e+00	2.728484e-19	2.984376e+05	7.915623e+04	6.184638e+04	1.831129e+04	1.831129e+04	9.696710e-21	
1.000000e+00	0.000000e+00	5.689806e-03	2.844899e-03	3.637979e-19	2.792149e-17	2.984376e+05	7.915623e+04	6.184638e+04	1.831129e+04	1.831129e+04	9.923809e-19	
0.000000e+00	2.000000e-01	5.689806e-03	2.844899e-03	0.000000e+00	0.000000e+00	2.984376e+05	7.915623e+04	6.184638e+04	1.831129e+04	1.831129e+04	0.000000e+00	
2.000000e-01	2.000000e-01	5.689806e-03	2.844899e-03	6.366463e-18	0.000000e+00	2.984376e+05	7.915623e+04	6.184638e+04	1.831129e+04	1.831129e+04	2.262566e-19	
4.000000e-01	2.000000e-01	5.689806e-03	2.844899e-03	-3.637979e-19	0.000000e+00	2.984376e+05	7.915623e+04	6.184638e+04	1.831129e+04	1.831129e+04	1.292895e-20	
6.000000e-01	2.000000e-01	5.689806e-03	2.844899e-03	0.000000e+00	7.639755e-18	2.984376e+05	7.915623e+04	6.184638e+04	1.831129e+04	1.831129e+04	2.715079e-19	
8.000000e-01	2.000000e-01	5.689806e-03	2.844899e-03	0.000000e+00	-1.437002e-17	2.984376e+05	7.915623e+04	6.184638e+04	1.831129e+04	1.831129e+04	5.106934e-19	
1.000000e+00	2.000000e-01	5.689806e-03	2.844899e-03	0.000000e+00	0.000000e+00	2.984376e+05	7.915623e+04	6.184638e+04	1.831129e+04	1.831129e+04	0.000000e+00	
0.000000e+00	4.000000e-01	5.689806e-03	2.844899e-03	1.227818e-17	1.818989e-19	2.984376e+05	7.915623e+04	6.184638e+04	1.831129e+04	1.831129e+04	4.363998e-19	
2.000000e-01	4.000000e-01	5.689806e-03	2.844899e-03	5.019812e-18	0.000000e+00	2.984376e+05	7.915623e+04	6.184638e+04	1.831129e+04	1.831129e+04	1.783982e-19	
4.000000e-01	4.000000e-01	5.689806e-03	2.844899e-03	3.155348e-18	-1.818989e-19	2.984376e+05	7.915623e+04	6.184638e+04	1.831129e+04	1.831129e+04	1.123235e-19	
6.000000e-01	4.000000e-01	5.689806e-03	2.844899e-03	-7.639755e-18	0.000000e+00	2.984376e+05	7.915623e+04	6.184638e+04	1.831129e+04	1.831129e+04	2.715079e-19	
8.000000e-01	4.000000e-01	5.689806e-03	2.844899e-03	0.000000e+00	-9.094947e-20	2.984376e+05	7.915623e+04	6.184638e+04	1.831129e+04	1.831129e+04	3.232237e-21	
1.000000e+00	4.000000e-01	5.689806e-03	2.844899e-03	0.000000e+00	0.000000e+00	2.984376e+05	7.915623e+04	6.184638e+04	1.831129e+04	1.831129e+04	0.000000e+00	
0.000000e+00	6.000000e-01	5.689806e-03	2.844899e-03	-1.818989e-19	0.000000e+00	2.984376e+05	7.915623e+04	6.184638e+04	1.831129e+04	1.831129e+04	6.464474e-21	
2.000000e-01	6.000000e-01	5.689806e-03	2.844899e-03	-6.422230e-18	0.000000e+00	2.984376e+05	7.915623e+04	6.184638e+04	1.831129e+04	1.831129e+04	2.282385e-19	
4.000000e-01	6.000000e-01	5.689806e-03	2.844899e-03	1.364242e-19	-1.818989e-19	2.984376e+05	7.915623e+04	6.184638e+04	1.831129e+04	1.831129e+04	8.080592e-21	
6.000000e-01	6.000000e-01	5.689806e-03	2.844899e-03	6.240331e-18	0.000000e+00	2.984376e+05	7.915623e+04	6.184638e+04	1.831129e+04	1.831129e+04	2.217740e-19	
8.000000e-01	6.000000e-01	5.689806e-03	2.844899e-03	0.000000e+00	-1.364242e-19	2.984376e+05	7.915623e+04	6.184638e+04	1.831129e+04	1.831129e+04	4.848355e-21	
1.000000e+00	6.000000e-01	5.689806e-03	2.844899e-03	1.573426e-17	0.000000e+00	2.984376e+05	7.915623e+04	6.184638e+04	1.831129e+04	1.831129e+04	5.591770e-19	
0.000000e+00	8.000000e-01	5.689806e-03	2.844899e-03	0.000000e+00	-1.818989e-19	2.984376e+05	7.915623e+04	6.184638e+04	1.831129e+04	1.831129e+04	6.464474e-21	
2.000000e-01	8.000000e-01	5.689806e-03	2.844899e-03	-1.364242e-19	-6.093615e-18	2.984376e+05	7.915623e+04	6.184638e+04	1.831129e+04	1.831129e+04	2.166141e-19	
4.000000e-01	8.000000e-01	5.689806e-03	2.844899e-03	0.000000e+00	0.000000e+00	2.984376e+05	7.915623e+04	6.184638e+04	1.831129e+04	1.831129e+04	0.000000e+00	
6.000000e-01	8.000000e-01	5.689806e-03	2.844899e-03	0.000000e+00	1.364242e-19	2.984376e+05	7.915623e+04	6.184638e+04	1.831129e+04	1.831129e+04	4.848355e-21	
8.000000e-01	8.000000e-01	5.689806e-03	2.844899e-03	0.000000e+00	9.094947e-20	2.984376e+05	7.915623e+04	6.184638e+04	1.831129e+04	1.831129e+04	3.232237e-21	
1.000000e+00	8.000000e-01	5.689806e-03	2.844899e-03	-1.500666e-17	0.000000e+00	2.984376e+05	7.915623e+04	6.184638e+04	1.831129e+04	1.831129e+04	5.333191e-19	
0.000000e+00	1.000000e+00	5.689806e-03	2.844899e-03	2.728484e-19	-3.637979e-19	2.984376e+05	7.915623e+04	6.184638e+04	1.831129e+04	1.831129e+04	1.616118e-20	
2.000000e-01	1.000000e+00	5.689806e-03	2.844899e-03	0.000000e+00	0.000000e+00	2.984376e+05	7.915623e+04	6.184638e+04	1.831129e+04	1.831129e+04	0.000000e+00	
4.000000e-01	1.000000e+00	5.689806e-03	2.844899e-03	0.000000e+00	0.000000e+00	2.984376e+05	7.915623e+04	6.184638e+04	1.831129e+04	1.831129e+04	0.000000e+00	
6.000000e-01	1.000000e+00	5.689806e-03	2.844899e-03	1.818989e-19	-1.573426e-17	2.984376e+05	7.915623e+04	6.184638e+04	1.831129e+04	1.831129e+04	5.592143e-19	
8.000000e-01	1.000000e+00	5.689806e-03	2.844899e-03	0.000000e+00	4.356480e-17	2.984376e+05	7.915623e+04	6.184638e+04	1.831129e+04	1.831129e+04	1.548241e-18	
1.000000e+00	1.000000e+00	5.689806e-03	2.844899e-03	0.000000e+00	-2.792149e-17	2.984376e+05	7.915623e+04	6.184638e+04	1.831129e+04	1.831129e+04	9.922967e-19	
1	2	8	7
2	3	9	8
3	4	10	9
4	5	11	10
5	6	12	11
7	8	14	13
8	9	15	14
9	10	16	15
10	11	17	16
11	12	18	17
13	14	20	19
14	15	21	20
15	16	22	21
16	17	23	22
17	18	24	23
19	20	26	25
20	21	27	26
21	22	28	27
22	23	29	28
23	24	30	29
25	26	32	31
26	27	33	32
27	28	34	33
28	29	35	34
29	30	36	35
