TITLE = "Visualization of the solution"
VARIABLES = "x","y","Density_N2","Density_N","Momentum_x","Momentum_y","Energy","Energy_ve","Pressure","Temperature","Temperature_ve","Mach"
ZONE STRANDID=401, SOLUTIONTIME=4e-07, NODES= 36, ELEMENTS= 25, DATAPACKING=POINT, ZONETYPE=FEQUADRILATERAL
0.000000e+00	0.000000e+00	5.689806e-03	2.844899e-03	0.000000e+00	-3.637979e-19	2.984376e+05	7.915545e+04	6.184677e+04	1.831140e+04	1.831121e+04	1.292891e-20	
2.000000e-01	0.000000e+00	5.689806e-03	2.844899e-03	0.000000e+00	7.275958e-19	2.984376e+05	7.915545e+04	6.184677e+04	1.831140e+04	1.831121e+04	2.585781e-20	
4.000000e-01	0.000000e+00	5.689806e-03	2.844899e-03	0.000000e+00	-1.818989e-19	2.984376e+05	7.915545e+04	6.184677e+04	1.831140e+04	1.831121e+04	6.464453e-21	
6.000000e-01	0.000000e+00	5.689806e-03	2.844899e-03	-1.818989e-19	-5.456968e-18	2.984376e+05	7.915545e+04	6.184677e+04	1.831140e+04	1.831121e+04	1.940413e-19	
8.000000e-01	0.000000e+00	5.689806e-03	2.844899e-03	0.000000e+00	2.728484e-19	2.984376e+05	7.915545e+04	6.184677e+04	1.831140e+04	1.831121e+04	9.696680e-21	
1.000000e+00	0.000000e+00	5.689806e-03	2.844899e-03	3.637979e-19	1.109584e-17	2.984376e+05	7.915545e+04	6.184677e+04	1.831140e+04	1.831121e+04	3.945435e-19	
0.000000e+00	2.000000e-01	5.689806e-03	2.844899e-03	0.000000e+00	0.000000e+00	2.984376e+05	7.915545e+04	6.184677e+04	1.831140e+04	1.831121e+04	0.000000e+00	
2.000000e-01	2.000000e-01	5.689806e-03	2.844899e-03	1.864464e-18	0.000000e+00	2.984376e+05	7.915545e+04	6.184677e+04	1.831140e+04	1.831121e+04	6.626064e-20	
4.000000e-01	2.000000e-01	5.689806e-03	2.844899e-03	-3.637979e-19	0.000000e+00	2.984376e+05	7.915545e+04	6.184677e+04	1.831140e+04	1.831121e+04	1.292891e-20	
6.000000e-01	2.000000e-01	5.689806e-03	2.844899e-03	0.000000e+00	2.728484e-18	2.984376e+05	7.915545e+04	6.184677e+04	1.831140e+04	1.831121e+04	9.696680e-20	
8.000000e-01	2.000000e-01	5.689806e-03	2.844899e-03	0.000000e+00	-4.729372e-18	2.984376e+05	7.915545e+04	6.184677e+04	1.831140e+04	1.831121e+04	1.680758e-19	
1.000000e+00	2.000000e-01	5.689806e-03	2.844899e-03	0.000000e+00	0.000000e+00	2.984376e+05	7.915545e+04	6.184677e+04	1.831140e+04	1.831121e+04	0.000000e+00	
0.000000e+00	4.000000e-01	5.689806e-03	2.844899e-03	2.455636e-18	1.818989e-19	2.984376e+05	7.915545e+04	6.184677e+04	1.831140e+04	1.831121e+04	8.750921e-20	
2.000000e-01	4.000000e-01	5.689806e-03	2.844899e-03	2.562050e-18	0.000000e+00	2.984376e+05	7.915545e+04	6.184677e+04	1.831140e+04	1.831121e+04	9.105193e-20	
4.000000e-01	4.000000e-01	5.689806e-03	2.844899e-03	6.975856e-19	-1.818989e-19	2.984376e+05	7.915545e+04	6.184677e+04	1.831140e+04	1.831121e+04	2.562025e-20	
6.000000e-01	4.000000e-01	5.689806e-03	2.844899e-03	-2.728484e-18	0.000000e+00	2.984376e+05	7.915545e+04	6.184677e+04	1.831140e+04	1.831121e+04	9.696680e-20	
8.000000e-01	4.000000e-01	5.689806e-03	2.844899e-03	0.000000e+00	-9.094947e-20	2.984376e+05	7.915545e+04	6.184677e+04	1.831140e+04	1.831121e+04	3.232227e-21	
1.000000e+00	4.000000e-01	5.689806e-03	2.844899e-03	0.000000e+00	0.000000e+00	2.984376e+05	7.915545e+04	6.184677e+04	1.831140e+04	1.831121e+04	0.000000e+00	
0.000000e+00	6.000000e-01	5.689806e-03	2.844899e-03	-1.818989e-19	0.000000e+00	2.984376e+05	7.915545e+04	6.184677e+04	1.831140e+04	1.831121e+04	6.464453e-21	
2.000000e-01	6.000000e-01	5.689806e-03	2.844899e-03	-1.697111e-18	0.000000e+00	2.984376e+05	7.915545e+04	6.184677e+04	1.831140e+04	1.831121e+04	6.031312e-20	
4.000000e-01	6.000000e-01	5.689806e-03	2.844899e-03	1.364242e-19	-1.818989e-19	2.984376e+05	7.915545e+04	6.184677e+04	1.831140e+04	1.831121e+04	8.080566e-21	
6.000000e-01	6.000000e-01	5.689806e-03	2.844899e-03	1.515212e-18	0.000000e+00	2.984376e+05	7.915545e+04	6.184677e+04	1.831140e+04	1.831121e+04	5.384867e-20	
8.000000e-01	6.000000e-01	5.689806e-03	2.844899e-03	0.000000e+00	-1.364242e-19	2.984376e+05	7.915545e+04	6.184677e+04	1.831140e+04	1.831121e+04	4.848340e-21	
1.000000e+00	6.000000e-01	5.689806e-03	2.844899e-03	5.911716e-18	0.000000e+00	2.984376e+05	7.915545e+04	6.184677e+04	1.831140e+04	1.831121e+04	2.100947e-19	
0.000000e+00	8.000000e-01	5.689806e-03	2.844899e-03	0.000000e+00	-1.818989e-19	2.984376e+05	7.915545e+04	6.184677e+04	1.831140e+04	1.831121e+04	6.464453e-21	
2.000000e-01	8.000000e-01	5.689806e-03	2.844899e-03	-1.364242e-19	-1.591616e-18	2.984376e+05	7.915545e+04	6.184677e+04	1.831140e+04	1.831121e+04	5.677137e-20	
4.000000e-01	8.000000e-01	5.689806e-03	2.844899e-03	0.000000e+00	0.000000e+00	2.984376e+05	7.915545e+04	6.184677e+04	1.831140e+04	1.831121e+04	0.000000e+00	
6.000000e-01	8.000000e-01	5.689806e-03	2.844899e-03	0.000000e+00	1.364242e-19	2.984376e+05	7.915545e+04	6.184677e+04	1.831140e+04	1.831121e+04	4.848340e-21	
8.000000e-01	8.000000e-01	5.689806e-03	2.844899e-03	0.000000e+00	9.094947e-20	2.984376e+05	7.915545e+04	6.184677e+04	1.831140e+04	1.831121e+04	3.232227e-21	
1.000000e+00	8.000000e-01	5.689806e-03	2.844899e-03	-5.184120e-18	0.000000e+00	2.984376e+05	7.915545e+04	6.184677e+04	1.831140e+04	1.831121e+04	1.842369e-19	
0.000000e+00	1.000000e+00	5.689806e-03	2.844899e-03	2.728484e-19	-3.637979e-19	2.984376e+05	7.915545e+04	6.184677e+04	1.831140e+04	1.831121e+04	1.616113e-20	
2.000000e-01	1.000000e+00	5.689806e-03	2.844899e-03	0.000000e+00	0.000000e+00	2.984376e+05	7.915545e+04	6.184677e+04	1.831140e+04	1.831121e+04	0.000000e+00	
4.000000e-01	1.000000e+00	5.689806e-03	2.844899e-03	0.000000e+00	0.000000e+00	2.984376e+05	7.915545e+04	6.184677e+04	1.831140e+04	1.831121e+04	0.000000e+00	
6.000000e-01	1.000000e+00	5.689806e-03	2.844899e-03	1.818989e-19	-5.911716e-18	2.984376e+05	7.915545e+04	6.184677e+04	1.831140e+04	1.831121e+04	2.101942e-19	
8.000000e-01	1.000000e+00	5.689806e-03	2.844899e-03	0.000000e+00	1.446097e-17	2.984376e+05	7.915545e+04	6.184677e+04	1.831140e+04	1.831121e+04	5.139240e-19	
1.000000e+00	1.000000e+00	5.689806e-03	2.844899e-03	0.000000e+00	-1.109584e-17	2.984376e+05	7.915545e+04	6.184677e+04	1.831140e+04	1.831121e+04	3.943316e-19	
1	2	8	7
2	3	9	8
3	4	10	9
4	5	11	10
5	6	12	11
7	8	14	13
8	9	15	14
9	10	16	15
10	11	17	16
11	12	18	17
13	14	20	19
14	15	21	20
15	16	22	21
16	17	23	22
17	18	24	23
19	20	26	25
20	21	27	26
21	22	28	27
22	23	29	28
23	24	30	29
25	26	32	31
26	27	33	32
27	28	34	33
28	29	35	34
29	30	36	35
