TITLE = "Visualization of the solution"
VARIABLES = "x","y","Density_N2","Density_N","Momentum_x","Momentum_y","Energy","Energy_ve","Pressure","Temperature","Temperature_ve","Mach"
ZONE STRANDID=281, SOLUTIONTIME=2.8e-07, NODES= 36, ELEMENTS= 25, DATAPACKING=POINT, ZONETYPE=FEQUADRILATERAL
0.000000e+00	0.000000e+00	5.689806e-03	2.844899e-03	0.000000e+00	-3.637979e-19	2.984376e+05	7.913675e+04	6.185612e+04	1.831417e+04	1.830926e+04	1.292793e-20	
2.000000e-01	0.000000e+00	5.689806e-03	2.844899e-03	0.000000e+00	7.275958e-19	2.984376e+05	7.913675e+04	6.185612e+04	1.831417e+04	1.830926e+04	2.585586e-20	
4.000000e-01	0.000000e+00	5.689806e-03	2.844899e-03	0.000000e+00	-1.818989e-19	2.984376e+05	7.913675e+04	6.185612e+04	1.831417e+04	1.830926e+04	6.463965e-21	
6.000000e-01	0.000000e+00	5.689806e-03	2.844899e-03	-1.818989e-19	-4.092726e-18	2.984376e+05	7.913675e+04	6.185612e+04	1.831417e+04	1.830926e+04	1.455828e-19	
8.000000e-01	0.000000e+00	5.689806e-03	2.844899e-03	0.000000e+00	2.728484e-19	2.984376e+05	7.913675e+04	6.185612e+04	1.831417e+04	1.830926e+04	9.695947e-21	
1.000000e+00	0.000000e+00	5.689806e-03	2.844899e-03	3.637979e-19	7.185008e-18	2.984376e+05	7.913675e+04	6.185612e+04	1.831417e+04	1.830926e+04	2.556537e-19	
0.000000e+00	2.000000e-01	5.689806e-03	2.844899e-03	0.000000e+00	0.000000e+00	2.984376e+05	7.913675e+04	6.185612e+04	1.831417e+04	1.830926e+04	0.000000e+00	
2.000000e-01	2.000000e-01	5.689806e-03	2.844899e-03	7.730705e-19	0.000000e+00	2.984376e+05	7.913675e+04	6.185612e+04	1.831417e+04	1.830926e+04	2.747185e-20	
4.000000e-01	2.000000e-01	5.689806e-03	2.844899e-03	-3.637979e-19	0.000000e+00	2.984376e+05	7.913675e+04	6.185612e+04	1.831417e+04	1.830926e+04	1.292793e-20	
6.000000e-01	2.000000e-01	5.689806e-03	2.844899e-03	0.000000e+00	2.046363e-18	2.984376e+05	7.913675e+04	6.185612e+04	1.831417e+04	1.830926e+04	7.271960e-20	
8.000000e-01	2.000000e-01	5.689806e-03	2.844899e-03	0.000000e+00	-2.546585e-18	2.984376e+05	7.913675e+04	6.185612e+04	1.831417e+04	1.830926e+04	9.049550e-20	
1.000000e+00	2.000000e-01	5.689806e-03	2.844899e-03	0.000000e+00	0.000000e+00	2.984376e+05	7.913675e+04	6.185612e+04	1.831417e+04	1.830926e+04	0.000000e+00	
0.000000e+00	4.000000e-01	5.689806e-03	2.844899e-03	1.091394e-18	1.818989e-19	2.984376e+05	7.913675e+04	6.185612e+04	1.831417e+04	1.830926e+04	3.931876e-20	
2.000000e-01	4.000000e-01	5.689806e-03	2.844899e-03	1.948095e-18	0.000000e+00	2.984376e+05	7.913675e+04	6.185612e+04	1.831417e+04	1.830926e+04	6.922755e-20	
4.000000e-01	4.000000e-01	5.689806e-03	2.844899e-03	8.363090e-20	-1.818989e-19	2.984376e+05	7.913675e+04	6.185612e+04	1.831417e+04	1.830926e+04	7.114428e-21	
6.000000e-01	4.000000e-01	5.689806e-03	2.844899e-03	-2.046363e-18	0.000000e+00	2.984376e+05	7.913675e+04	6.185612e+04	1.831417e+04	1.830926e+04	7.271960e-20	
8.000000e-01	4.000000e-01	5.689806e-03	2.844899e-03	0.000000e+00	-9.094947e-20	2.984376e+05	7.913675e+04	6.185612e+04	1.831417e+04	1.830926e+04	3.231982e-21	
1.000000e+00	4.000000e-01	5.689806e-03	2.844899e-03	0.000000e+00	0.000000e+00	2.984376e+05	7.913675e+04	6.185612e+04	1.831417e+04	1.830926e+04	0.000000e+00	
0.000000e+00	6.000000e-01	5.689806e-03	2.844899e-03	-1.818989e-19	0.000000e+00	2.984376e+05	7.913675e+04	6.185612e+04	1.831417e+04	1.830926e+04	6.463965e-21	
2.000000e-01	6.000000e-01	5.689806e-03	2.844899e-03	-7.422329e-19	0.000000e+00	2.984376e+05	7.913675e+04	6.185612e+04	1.831417e+04	1.830926e+04	2.637600e-20	
4.000000e-01	6.000000e-01	5.689806e-03	2.844899e-03	1.364242e-19	-1.818989e-19	2.984376e+05	7.913675e+04	6.185612e+04	1.831417e+04	1.830926e+04	8.079956e-21	
6.000000e-01	6.000000e-01	5.689806e-03	2.844899e-03	5.603340e-19	0.000000e+00	2.984376e+05	7.913675e+04	6.185612e+04	1.831417e+04	1.830926e+04	1.991204e-20	
8.000000e-01	6.000000e-01	5.689806e-03	2.844899e-03	0.000000e+00	-1.364242e-19	2.984376e+05	7.913675e+04	6.185612e+04	1.831417e+04	1.830926e+04	4.847973e-21	
1.000000e+00	6.000000e-01	5.689806e-03	2.844899e-03	4.547474e-18	0.000000e+00	2.984376e+05	7.913675e+04	6.185612e+04	1.831417e+04	1.830926e+04	1.615991e-19	
0.000000e+00	8.000000e-01	5.689806e-03	2.844899e-03	0.000000e+00	-1.818989e-19	2.984376e+05	7.913675e+04	6.185612e+04	1.831417e+04	1.830926e+04	6.463965e-21	
2.000000e-01	8.000000e-01	5.689806e-03	2.844899e-03	-1.364242e-19	-5.002221e-19	2.984376e+05	7.913675e+04	6.185612e+04	1.831417e+04	1.830926e+04	1.842513e-20	
4.000000e-01	8.000000e-01	5.689806e-03	2.844899e-03	0.000000e+00	0.000000e+00	2.984376e+05	7.913675e+04	6.185612e+04	1.831417e+04	1.830926e+04	0.000000e+00	
6.000000e-01	8.000000e-01	5.689806e-03	2.844899e-03	0.000000e+00	1.364242e-19	2.984376e+05	7.913675e+04	6.185612e+04	1.831417e+04	1.830926e+04	4.847973e-21	
8.000000e-01	8.000000e-01	5.689806e-03	2.844899e-03	0.000000e+00	9.094947e-20	2.984376e+05	7.913675e+04	6.185612e+04	1.831417e+04	1.830926e+04	3.231982e-21	
1.000000e+00	8.000000e-01	5.689806e-03	2.844899e-03	-3.819878e-18	0.000000e+00	2.984376e+05	7.913675e+04	6.185612e+04	1.831417e+04	1.830926e+04	1.357433e-19	
0.000000e+00	1.000000e+00	5.689806e-03	2.844899e-03	2.728484e-19	-3.637979e-19	2.984376e+05	7.913675e+04	6.185612e+04	1.831417e+04	1.830926e+04	1.615991e-20	
2.000000e-01	1.000000e+00	5.689806e-03	2.844899e-03	0.000000e+00	0.000000e+00	2.984376e+05	7.913675e+04	6.185612e+04	1.831417e+04	1.830926e+04	0.000000e+00	
4.000000e-01	1.000000e+00	5.689806e-03	2.844899e-03	0.000000e+00	0.000000e+00	2.984376e+05	7.913675e+04	6.185612e+04	1.831417e+04	1.830926e+04	0.000000e+00	
6.000000e-01	1.000000e+00	5.689806e-03	2.844899e-03	1.818989e-19	-4.547474e-18	2.984376e+05	7.913675e+04	6.185612e+04	1.831417e+04	1.830926e+04	1.617283e-19	
8.000000e-01	1.000000e+00	5.689806e-03	2.844899e-03	0.000000e+00	8.731149e-18	2.984376e+05	7.913675e+04	6.185612e+04	1.831417e+04	1.830926e+04	3.102703e-19	
1.000000e+00	1.000000e+00	5.689806e-03	2.844899e-03	0.000000e+00	-7.185008e-18	2.984376e+05	7.913675e+04	6.185612e+04	1.831417e+04	1.830926e+04	2.553266e-19	
1	2	8	7
2	3	9	8
3	4	10	9
4	5	11	10
5	6	12	11
7	8	14	13
8	9	15	14
9	10	16	15
10	11	17	16
11	12	18	17
13	14	20	19
14	15	21	20
15	16	22	21
16	17	23	22
17	18	24	23
19	20	26	25
20	21	27	26
21	22	28	27
22	23	29	28
23	24	30	29
25	26	32	31
26	27	33	32
27	28	34	33
28	29	35	34
29	30	36	35
