TITLE = "Visualization of the solution"
VARIABLES = "x","y","Density_N2","Density_N","Momentum_x","Momentum_y","Energy","Energy_ve","Pressure","Temperature","Temperature_ve","Mach"
ZONE STRANDID=161, SOLUTIONTIME=1.6e-07, NODES= 36, ELEMENTS= 25, DATAPACKING=POINT, ZONETYPE=FEQUADRILATERAL
0.000000e+00	0.000000e+00	5.689806e-03	2.844899e-03	0.000000e+00	-3.637979e-19	2.984376e+05	7.866825e+04	6.209037e+04	1.838353e+04	1.826045e+04	1.290352e-20	
2.000000e-01	0.000000e+00	5.689806e-03	2.844899e-03	0.000000e+00	7.275958e-19	2.984376e+05	7.866825e+04	6.209037e+04	1.838353e+04	1.826045e+04	2.580704e-20	
4.000000e-01	0.000000e+00	5.689806e-03	2.844899e-03	0.000000e+00	-1.818989e-19	2.984376e+05	7.866825e+04	6.209037e+04	1.838353e+04	1.826045e+04	6.451760e-21	
6.000000e-01	0.000000e+00	5.689806e-03	2.844899e-03	-1.818989e-19	-1.909939e-18	2.984376e+05	7.866825e+04	6.209037e+04	1.838353e+04	1.826045e+04	6.805001e-20	
8.000000e-01	0.000000e+00	5.689806e-03	2.844899e-03	0.000000e+00	2.728484e-19	2.984376e+05	7.866825e+04	6.209037e+04	1.838353e+04	1.826045e+04	9.677639e-21	
1.000000e+00	0.000000e+00	5.689806e-03	2.844899e-03	3.637979e-19	2.455636e-18	2.984376e+05	7.866825e+04	6.209037e+04	1.838353e+04	1.826045e+04	8.804938e-20	
0.000000e+00	2.000000e-01	5.689806e-03	2.844899e-03	0.000000e+00	0.000000e+00	2.984376e+05	7.866825e+04	6.209037e+04	1.838353e+04	1.826045e+04	0.000000e+00	
2.000000e-01	2.000000e-01	5.689806e-03	2.844899e-03	-2.273737e-19	0.000000e+00	2.984376e+05	7.866825e+04	6.209037e+04	1.838353e+04	1.826045e+04	8.064700e-21	
4.000000e-01	2.000000e-01	5.689806e-03	2.844899e-03	-3.637979e-19	0.000000e+00	2.984376e+05	7.866825e+04	6.209037e+04	1.838353e+04	1.826045e+04	1.290352e-20	
6.000000e-01	2.000000e-01	5.689806e-03	2.844899e-03	0.000000e+00	9.549694e-19	2.984376e+05	7.866825e+04	6.209037e+04	1.838353e+04	1.826045e+04	3.387174e-20	
8.000000e-01	2.000000e-01	5.689806e-03	2.844899e-03	0.000000e+00	-5.456968e-19	2.984376e+05	7.866825e+04	6.209037e+04	1.838353e+04	1.826045e+04	1.935528e-20	
1.000000e+00	2.000000e-01	5.689806e-03	2.844899e-03	0.000000e+00	0.000000e+00	2.984376e+05	7.866825e+04	6.209037e+04	1.838353e+04	1.826045e+04	0.000000e+00	
0.000000e+00	4.000000e-01	5.689806e-03	2.844899e-03	-1.091394e-18	1.818989e-19	2.984376e+05	7.866825e+04	6.209037e+04	1.838353e+04	1.826045e+04	3.924452e-20	
2.000000e-01	4.000000e-01	5.689806e-03	2.844899e-03	1.345905e-18	0.000000e+00	2.984376e+05	7.866825e+04	6.209037e+04	1.838353e+04	1.826045e+04	4.773780e-20	
4.000000e-01	4.000000e-01	5.689806e-03	2.844899e-03	-5.185592e-19	-1.818989e-19	2.984376e+05	7.866825e+04	6.209037e+04	1.838353e+04	1.826045e+04	1.949148e-20	
6.000000e-01	4.000000e-01	5.689806e-03	2.844899e-03	-9.549694e-19	0.000000e+00	2.984376e+05	7.866825e+04	6.209037e+04	1.838353e+04	1.826045e+04	3.387174e-20	
8.000000e-01	4.000000e-01	5.689806e-03	2.844899e-03	0.000000e+00	-9.094947e-20	2.984376e+05	7.866825e+04	6.209037e+04	1.838353e+04	1.826045e+04	3.225880e-21	
1.000000e+00	4.000000e-01	5.689806e-03	2.844899e-03	0.000000e+00	0.000000e+00	2.984376e+05	7.866825e+04	6.209037e+04	1.838353e+04	1.826045e+04	0.000000e+00	
0.000000e+00	6.000000e-01	5.689806e-03	2.844899e-03	-1.818989e-19	0.000000e+00	2.984376e+05	7.866825e+04	6.209037e+04	1.838353e+04	1.826045e+04	6.451760e-21	
2.000000e-01	6.000000e-01	5.689806e-03	2.844899e-03	5.427525e-20	0.000000e+00	2.984376e+05	7.866825e+04	6.209037e+04	1.838353e+04	1.826045e+04	1.925085e-21	
4.000000e-01	6.000000e-01	5.689806e-03	2.844899e-03	1.364242e-19	-1.818989e-19	2.984376e+05	7.866825e+04	6.209037e+04	1.838353e+04	1.826045e+04	8.064700e-21	
6.000000e-01	6.000000e-01	5.689806e-03	2.844899e-03	-2.361742e-19	0.000000e+00	2.984376e+05	7.866825e+04	6.209037e+04	1.838353e+04	1.826045e+04	8.376844e-21	
8.000000e-01	6.000000e-01	5.689806e-03	2.844899e-03	0.000000e+00	-1.364242e-19	2.984376e+05	7.866825e+04	6.209037e+04	1.838353e+04	1.826045e+04	4.838820e-21	
1.000000e+00	6.000000e-01	5.689806e-03	2.844899e-03	2.364686e-18	0.000000e+00	2.984376e+05	7.866825e+04	6.209037e+04	1.838353e+04	1.826045e+04	8.387287e-20	
0.000000e+00	8.000000e-01	5.689806e-03	2.844899e-03	0.000000e+00	-1.818989e-19	2.984376e+05	7.866825e+04	6.209037e+04	1.838353e+04	1.826045e+04	6.451760e-21	
2.000000e-01	8.000000e-01	5.689806e-03	2.844899e-03	-1.364242e-19	5.002221e-19	2.984376e+05	7.866825e+04	6.209037e+04	1.838353e+04	1.826045e+04	1.839034e-20	
4.000000e-01	8.000000e-01	5.689806e-03	2.844899e-03	0.000000e+00	0.000000e+00	2.984376e+05	7.866825e+04	6.209037e+04	1.838353e+04	1.826045e+04	0.000000e+00	
6.000000e-01	8.000000e-01	5.689806e-03	2.844899e-03	0.000000e+00	1.364242e-19	2.984376e+05	7.866825e+04	6.209037e+04	1.838353e+04	1.826045e+04	4.838820e-21	
8.000000e-01	8.000000e-01	5.689806e-03	2.844899e-03	0.000000e+00	9.094947e-20	2.984376e+05	7.866825e+04	6.209037e+04	1.838353e+04	1.826045e+04	3.225880e-21	
1.000000e+00	8.000000e-01	5.689806e-03	2.844899e-03	-1.637090e-18	0.000000e+00	2.984376e+05	7.866825e+04	6.209037e+04	1.838353e+04	1.826045e+04	5.806584e-20	
0.000000e+00	1.000000e+00	5.689806e-03	2.844899e-03	2.728484e-19	-3.637979e-19	2.984376e+05	7.866825e+04	6.209037e+04	1.838353e+04	1.826045e+04	1.612940e-20	
2.000000e-01	1.000000e+00	5.689806e-03	2.844899e-03	0.000000e+00	0.000000e+00	2.984376e+05	7.866825e+04	6.209037e+04	1.838353e+04	1.826045e+04	0.000000e+00	
4.000000e-01	1.000000e+00	5.689806e-03	2.844899e-03	0.000000e+00	0.000000e+00	2.984376e+05	7.866825e+04	6.209037e+04	1.838353e+04	1.826045e+04	0.000000e+00	
6.000000e-01	1.000000e+00	5.689806e-03	2.844899e-03	1.818989e-19	-2.364686e-18	2.984376e+05	7.866825e+04	6.209037e+04	1.838353e+04	1.826045e+04	8.412065e-20	
8.000000e-01	1.000000e+00	5.689806e-03	2.844899e-03	0.000000e+00	2.546585e-18	2.984376e+05	7.866825e+04	6.209037e+04	1.838353e+04	1.826045e+04	9.032463e-20	
1.000000e+00	1.000000e+00	5.689806e-03	2.844899e-03	0.000000e+00	-2.455636e-18	2.984376e+05	7.866825e+04	6.209037e+04	1.838353e+04	1.826045e+04	8.709875e-20	
1	2	8	7
2	3	9	8
3	4	10	9
4	5	11	10
5	6	12	11
7	8	14	13
8	9	15	14
9	10	16	15
10	11	17	16
11	12	18	17
13	14	20	19
14	15	21	20
15	16	22	21
16	17	23	22
17	18	24	23
19	20	26	25
20	21	27	26
21	22	28	27
22	23	29	28
23	24	30	29
25	26	32	31
26	27	33	32
27	28	34	33
28	29	35	34
29	30	36	35
