TITLE = "Visualization of the solution"
VARIABLES = "x","y","Density_N2","Density_N","Momentum_x","Momentum_y","Energy","Energy_ve","Pressure","Temperature","Temperature_ve","Mach"
ZONE STRANDID=421, SOLUTIONTIME=4.2e-07, NODES= 36, ELEMENTS= 25, DATAPACKING=POINT, ZONETYPE=FEQUADRILATERAL
0.000000e+00	0.000000e+00	5.689806e-03	2.844899e-03	0.000000e+00	-3.637979e-19	2.984376e+05	7.915577e+04	6.184661e+04	1.831136e+04	1.831124e+04	1.292892e-20	
2.000000e-01	0.000000e+00	5.689806e-03	2.844899e-03	0.000000e+00	7.275958e-19	2.984376e+05	7.915577e+04	6.184661e+04	1.831136e+04	1.831124e+04	2.585785e-20	
4.000000e-01	0.000000e+00	5.689806e-03	2.844899e-03	0.000000e+00	-1.818989e-19	2.984376e+05	7.915577e+04	6.184661e+04	1.831136e+04	1.831124e+04	6.464462e-21	
6.000000e-01	0.000000e+00	5.689806e-03	2.844899e-03	-1.818989e-19	-5.820766e-18	2.984376e+05	7.915577e+04	6.184661e+04	1.831136e+04	1.831124e+04	2.069638e-19	
8.000000e-01	0.000000e+00	5.689806e-03	2.844899e-03	0.000000e+00	2.728484e-19	2.984376e+05	7.915577e+04	6.184661e+04	1.831136e+04	1.831124e+04	9.696692e-21	
1.000000e+00	0.000000e+00	5.689806e-03	2.844899e-03	3.637979e-19	1.182343e-17	2.984376e+05	7.915577e+04	6.184661e+04	1.831136e+04	1.831124e+04	4.203889e-19	
0.000000e+00	2.000000e-01	5.689806e-03	2.844899e-03	0.000000e+00	0.000000e+00	2.984376e+05	7.915577e+04	6.184661e+04	1.831136e+04	1.831124e+04	0.000000e+00	
2.000000e-01	2.000000e-01	5.689806e-03	2.844899e-03	1.955414e-18	0.000000e+00	2.984376e+05	7.915577e+04	6.184661e+04	1.831136e+04	1.831124e+04	6.949296e-20	
4.000000e-01	2.000000e-01	5.689806e-03	2.844899e-03	-3.637979e-19	0.000000e+00	2.984376e+05	7.915577e+04	6.184661e+04	1.831136e+04	1.831124e+04	1.292892e-20	
6.000000e-01	2.000000e-01	5.689806e-03	2.844899e-03	0.000000e+00	2.910383e-18	2.984376e+05	7.915577e+04	6.184661e+04	1.831136e+04	1.831124e+04	1.034314e-19	
8.000000e-01	2.000000e-01	5.689806e-03	2.844899e-03	0.000000e+00	-5.047696e-18	2.984376e+05	7.915577e+04	6.184661e+04	1.831136e+04	1.831124e+04	1.793888e-19	
1.000000e+00	2.000000e-01	5.689806e-03	2.844899e-03	0.000000e+00	0.000000e+00	2.984376e+05	7.915577e+04	6.184661e+04	1.831136e+04	1.831124e+04	0.000000e+00	
0.000000e+00	4.000000e-01	5.689806e-03	2.844899e-03	2.819434e-18	1.818989e-19	2.984376e+05	7.915577e+04	6.184661e+04	1.831136e+04	1.831124e+04	1.004075e-19	
2.000000e-01	4.000000e-01	5.689806e-03	2.844899e-03	2.664449e-18	0.000000e+00	2.984376e+05	7.915577e+04	6.184661e+04	1.831136e+04	1.831124e+04	9.469119e-20	
4.000000e-01	4.000000e-01	5.689806e-03	2.844899e-03	7.999847e-19	-1.818989e-19	2.984376e+05	7.915577e+04	6.184661e+04	1.831136e+04	1.831124e+04	2.915613e-20	
6.000000e-01	4.000000e-01	5.689806e-03	2.844899e-03	-2.910383e-18	0.000000e+00	2.984376e+05	7.915577e+04	6.184661e+04	1.831136e+04	1.831124e+04	1.034314e-19	
8.000000e-01	4.000000e-01	5.689806e-03	2.844899e-03	0.000000e+00	-9.094947e-20	2.984376e+05	7.915577e+04	6.184661e+04	1.831136e+04	1.831124e+04	3.232231e-21	
1.000000e+00	4.000000e-01	5.689806e-03	2.844899e-03	0.000000e+00	0.000000e+00	2.984376e+05	7.915577e+04	6.184661e+04	1.831136e+04	1.831124e+04	0.000000e+00	
0.000000e+00	6.000000e-01	5.689806e-03	2.844899e-03	-1.818989e-19	0.000000e+00	2.984376e+05	7.915577e+04	6.184661e+04	1.831136e+04	1.831124e+04	6.464462e-21	
2.000000e-01	6.000000e-01	5.689806e-03	2.844899e-03	-1.810636e-18	0.000000e+00	2.984376e+05	7.915577e+04	6.184661e+04	1.831136e+04	1.831124e+04	6.434774e-20	
4.000000e-01	6.000000e-01	5.689806e-03	2.844899e-03	1.364242e-19	-1.818989e-19	2.984376e+05	7.915577e+04	6.184661e+04	1.831136e+04	1.831124e+04	8.080577e-21	
6.000000e-01	6.000000e-01	5.689806e-03	2.844899e-03	1.628737e-18	0.000000e+00	2.984376e+05	7.915577e+04	6.184661e+04	1.831136e+04	1.831124e+04	5.788328e-20	
8.000000e-01	6.000000e-01	5.689806e-03	2.844899e-03	0.000000e+00	-1.364242e-19	2.984376e+05	7.915577e+04	6.184661e+04	1.831136e+04	1.831124e+04	4.848346e-21	
1.000000e+00	6.000000e-01	5.689806e-03	2.844899e-03	6.275513e-18	0.000000e+00	2.984376e+05	7.915577e+04	6.184661e+04	1.831136e+04	1.831124e+04	2.230239e-19	
0.000000e+00	8.000000e-01	5.689806e-03	2.844899e-03	0.000000e+00	-1.818989e-19	2.984376e+05	7.915577e+04	6.184661e+04	1.831136e+04	1.831124e+04	6.464462e-21	
2.000000e-01	8.000000e-01	5.689806e-03	2.844899e-03	-1.364242e-19	-1.682565e-18	2.984376e+05	7.915577e+04	6.184661e+04	1.831136e+04	1.831124e+04	5.999250e-20	
4.000000e-01	8.000000e-01	5.689806e-03	2.844899e-03	0.000000e+00	0.000000e+00	2.984376e+05	7.915577e+04	6.184661e+04	1.831136e+04	1.831124e+04	0.000000e+00	
6.000000e-01	8.000000e-01	5.689806e-03	2.844899e-03	0.000000e+00	1.364242e-19	2.984376e+05	7.915577e+04	6.184661e+04	1.831136e+04	1.831124e+04	4.848346e-21	
8.000000e-01	8.000000e-01	5.689806e-03	2.844899e-03	0.000000e+00	9.094947e-20	2.984376e+05	7.915577e+04	6.184661e+04	1.831136e+04	1.831124e+04	3.232231e-21	
1.000000e+00	8.000000e-01	5.689806e-03	2.844899e-03	-5.547918e-18	0.000000e+00	2.984376e+05	7.915577e+04	6.184661e+04	1.831136e+04	1.831124e+04	1.971661e-19	
0.000000e+00	1.000000e+00	5.689806e-03	2.844899e-03	2.728484e-19	-3.637979e-19	2.984376e+05	7.915577e+04	6.184661e+04	1.831136e+04	1.831124e+04	1.616115e-20	
2.000000e-01	1.000000e+00	5.689806e-03	2.844899e-03	0.000000e+00	0.000000e+00	2.984376e+05	7.915577e+04	6.184661e+04	1.831136e+04	1.831124e+04	0.000000e+00	
4.000000e-01	1.000000e+00	5.689806e-03	2.844899e-03	0.000000e+00	0.000000e+00	2.984376e+05	7.915577e+04	6.184661e+04	1.831136e+04	1.831124e+04	0.000000e+00	
6.000000e-01	1.000000e+00	5.689806e-03	2.844899e-03	1.818989e-19	-6.275513e-18	2.984376e+05	7.915577e+04	6.184661e+04	1.831136e+04	1.831124e+04	2.231176e-19	
8.000000e-01	1.000000e+00	5.689806e-03	2.844899e-03	0.000000e+00	1.546141e-17	2.984376e+05	7.915577e+04	6.184661e+04	1.831136e+04	1.831124e+04	5.494792e-19	
1.000000e+00	1.000000e+00	5.689806e-03	2.844899e-03	0.000000e+00	-1.182343e-17	2.984376e+05	7.915577e+04	6.184661e+04	1.831136e+04	1.831124e+04	4.201900e-19	
1	2	8	7
2	3	9	8
3	4	10	9
4	5	11	10
5	6	12	11
7	8	14	13
8	9	15	14
9	10	16	15
10	11	17	16
11	12	18	17
13	14	20	19
14	15	21	20
15	16	22	21
16	17	23	22
17	18	24	23
19	20	26	25
20	21	27	26
21	22	28	27
22	23	29	28
23	24	30	29
25	26	32	31
26	27	33	32
27	28	34	33
28	29	35	34
29	30	36	35
