TITLE = "Visualization of the solution"
VARIABLES = "x","y","Density_N2","Density_N","Momentum_x","Momentum_y","Energy","Energy_ve","Pressure","Temperature","Temperature_ve","Mach"
ZONE STRANDID=11, SOLUTIONTIME=1e-08, NODES= 36, ELEMENTS= 25, DATAPACKING=POINT, ZONETYPE=FEQUADRILATERAL
0.000000e+00	0.000000e+00	5.689806e-03	2.844899e-03	0.000000e+00	0.000000e+00	2.984376e+05	3.254313e+04	8.515292e+04	2.521182e+04	1.213641e+04	0.000000e+00	
2.000000e-01	0.000000e+00	5.689806e-03	2.844899e-03	0.000000e+00	3.637979e-19	2.984376e+05	3.254313e+04	8.515292e+04	2.521182e+04	1.213641e+04	1.101845e-20	
4.000000e-01	0.000000e+00	5.689806e-03	2.844899e-03	0.000000e+00	0.000000e+00	2.984376e+05	3.254313e+04	8.515292e+04	2.521182e+04	1.213641e+04	0.000000e+00	
6.000000e-01	0.000000e+00	5.689806e-03	2.844899e-03	0.000000e+00	-5.456968e-19	2.984376e+05	3.254313e+04	8.515292e+04	2.521182e+04	1.213641e+04	1.652768e-20	
8.000000e-01	0.000000e+00	5.689806e-03	2.844899e-03	0.000000e+00	0.000000e+00	2.984376e+05	3.254313e+04	8.515292e+04	2.521182e+04	1.213641e+04	0.000000e+00	
1.000000e+00	0.000000e+00	5.689806e-03	2.844899e-03	0.000000e+00	0.000000e+00	2.984376e+05	3.254313e+04	8.515292e+04	2.521182e+04	1.213641e+04	0.000000e+00	
0.000000e+00	2.000000e-01	5.689806e-03	2.844899e-03	0.000000e+00	0.000000e+00	2.984376e+05	3.254313e+04	8.515292e+04	2.521182e+04	1.213641e+04	0.000000e+00	
2.000000e-01	2.000000e-01	5.689806e-03	2.844899e-03	-3.637979e-19	0.000000e+00	2.984376e+05	3.254313e+04	8.515292e+04	2.521182e+04	1.213641e+04	1.101845e-20	
4.000000e-01	2.000000e-01	5.689806e-03	2.844899e-03	-1.818989e-19	0.000000e+00	2.984376e+05	3.254313e+04	8.515292e+04	2.521182e+04	1.213641e+04	5.509225e-21	
6.000000e-01	2.000000e-01	5.689806e-03	2.844899e-03	0.000000e+00	2.728484e-19	2.984376e+05	3.254313e+04	8.515292e+04	2.521182e+04	1.213641e+04	8.263838e-21	
8.000000e-01	2.000000e-01	5.689806e-03	2.844899e-03	0.000000e+00	0.000000e+00	2.984376e+05	3.254313e+04	8.515292e+04	2.521182e+04	1.213641e+04	0.000000e+00	
1.000000e+00	2.000000e-01	5.689806e-03	2.844899e-03	0.000000e+00	0.000000e+00	2.984376e+05	3.254313e+04	8.515292e+04	2.521182e+04	1.213641e+04	0.000000e+00	
0.000000e+00	4.000000e-01	5.689806e-03	2.844899e-03	-7.275958e-19	0.000000e+00	2.984376e+05	3.254313e+04	8.515292e+04	2.521182e+04	1.213641e+04	2.203690e-20	
2.000000e-01	4.000000e-01	5.689806e-03	2.844899e-03	3.058789e-19	0.000000e+00	2.984376e+05	3.254313e+04	8.515292e+04	2.521182e+04	1.213641e+04	9.264242e-21	
4.000000e-01	4.000000e-01	5.689806e-03	2.844899e-03	-1.488684e-19	0.000000e+00	2.984376e+05	3.254313e+04	8.515292e+04	2.521182e+04	1.213641e+04	4.508821e-21	
6.000000e-01	4.000000e-01	5.689806e-03	2.844899e-03	-2.728484e-19	0.000000e+00	2.984376e+05	3.254313e+04	8.515292e+04	2.521182e+04	1.213641e+04	8.263838e-21	
8.000000e-01	4.000000e-01	5.689806e-03	2.844899e-03	0.000000e+00	0.000000e+00	2.984376e+05	3.254313e+04	8.515292e+04	2.521182e+04	1.213641e+04	0.000000e+00	
1.000000e+00	4.000000e-01	5.689806e-03	2.844899e-03	0.000000e+00	0.000000e+00	2.984376e+05	3.254313e+04	8.515292e+04	2.521182e+04	1.213641e+04	0.000000e+00	
0.000000e+00	6.000000e-01	5.689806e-03	2.844899e-03	0.000000e+00	0.000000e+00	2.984376e+05	3.254313e+04	8.515292e+04	2.521182e+04	1.213641e+04	0.000000e+00	
2.000000e-01	6.000000e-01	5.689806e-03	2.844899e-03	1.570105e-19	0.000000e+00	2.984376e+05	3.254313e+04	8.515292e+04	2.521182e+04	1.213641e+04	4.755421e-21	
4.000000e-01	6.000000e-01	5.689806e-03	2.844899e-03	0.000000e+00	0.000000e+00	2.984376e+05	3.254313e+04	8.515292e+04	2.521182e+04	1.213641e+04	0.000000e+00	
6.000000e-01	6.000000e-01	5.689806e-03	2.844899e-03	-1.570105e-19	0.000000e+00	2.984376e+05	3.254313e+04	8.515292e+04	2.521182e+04	1.213641e+04	4.755421e-21	
8.000000e-01	6.000000e-01	5.689806e-03	2.844899e-03	0.000000e+00	0.000000e+00	2.984376e+05	3.254313e+04	8.515292e+04	2.521182e+04	1.213641e+04	0.000000e+00	
1.000000e+00	6.000000e-01	5.689806e-03	2.844899e-03	5.456968e-19	0.000000e+00	2.984376e+05	3.254313e+04	8.515292e+04	2.521182e+04	1.213641e+04	1.652768e-20	
0.000000e+00	8.000000e-01	5.689806e-03	2.844899e-03	0.000000e+00	0.000000e+00	2.984376e+05	3.254313e+04	8.515292e+04	2.521182e+04	1.213641e+04	0.000000e+00	
2.000000e-01	8.000000e-01	5.689806e-03	2.844899e-03	0.000000e+00	3.637979e-19	2.984376e+05	3.254313e+04	8.515292e+04	2.521182e+04	1.213641e+04	1.101845e-20	
4.000000e-01	8.000000e-01	5.689806e-03	2.844899e-03	0.000000e+00	0.000000e+00	2.984376e+05	3.254313e+04	8.515292e+04	2.521182e+04	1.213641e+04	0.000000e+00	
6.000000e-01	8.000000e-01	5.689806e-03	2.844899e-03	0.000000e+00	-9.094947e-20	2.984376e+05	3.254313e+04	8.515292e+04	2.521182e+04	1.213641e+04	2.754613e-21	
8.000000e-01	8.000000e-01	5.689806e-03	2.844899e-03	0.000000e+00	0.000000e+00	2.984376e+05	3.254313e+04	8.515292e+04	2.521182e+04	1.213641e+04	0.000000e+00	
1.000000e+00	8.000000e-01	5.689806e-03	2.844899e-03	-5.456968e-19	0.000000e+00	2.984376e+05	3.254313e+04	8.515292e+04	2.521182e+04	1.213641e+04	1.652768e-20	
0.000000e+00	1.000000e+00	5.689806e-03	2.844899e-03	0.000000e+00	0.000000e+00	2.984376e+05	3.254313e+04	8.515292e+04	2.521182e+04	1.213641e+04	0.000000e+00	
2.000000e-01	1.000000e+00	5.689806e-03	2.844899e-03	0.000000e+00	0.000000e+00	2.984376e+05	3.254313e+04	8.515292e+04	2.521182e+04	1.213641e+04	0.000000e+00	
4.000000e-01	1.000000e+00	5.689806e-03	2.844899e-03	0.000000e+00	0.000000e+00	2.984376e+05	3.254313e+04	8.515292e+04	2.521182e+04	1.213641e+04	0.000000e+00	
6.000000e-01	1.000000e+00	5.689806e-03	2.844899e-03	0.000000e+00	-3.637979e-19	2.984376e+05	3.254313e+04	8.515292e+04	2.521182e+04	1.213641e+04	1.101845e-20	
8.000000e-01	1.000000e+00	5.689806e-03	2.844899e-03	0.000000e+00	-1.818989e-19	2.984376e+05	3.254313e+04	8.515292e+04	2.521182e+04	1.213641e+04	5.509225e-21	
1.000000e+00	1.000000e+00	5.689806e-03	2.844899e-03	0.000000e+00	0.000000e+00	2.984376e+05	3.254313e+04	8.515292e+04	2.521182e+04	1.213641e+04	0.000000e+00	
1	2	8	7
2	3	9	8
3	4	10	9
4	5	11	10
5	6	12	11
7	8	14	13
8	9	15	14
9	10	16	15
10	11	17	16
11	12	18	17
13	14	20	19
14	15	21	20
15	16	22	21
16	17	23	22
17	18	24	23
19	20	26	25
20	21	27	26
21	22	28	27
22	23	29	28
23	24	30	29
25	26	32	31
26	27	33	32
27	28	34	33
28	29	35	34
29	30	36	35
