TITLE = "Visualization of the solution"
VARIABLES = "x","y","Density_N2","Density_N","Momentum_x","Momentum_y","Energy","Energy_ve","Pressure","Temperature","Temperature_ve","Mach"
ZONE STRANDID=151, SOLUTIONTIME=1.5e-07, NODES= 36, ELEMENTS= 25, DATAPACKING=POINT, ZONETYPE=FEQUADRILATERAL
0.000000e+00	0.000000e+00	5.689806e-03	2.844899e-03	0.000000e+00	-3.637979e-19	2.984376e+05	7.851693e+04	6.216603e+04	1.840593e+04	1.824466e+04	1.289566e-20	
2.000000e-01	0.000000e+00	5.689806e-03	2.844899e-03	0.000000e+00	7.275958e-19	2.984376e+05	7.851693e+04	6.216603e+04	1.840593e+04	1.824466e+04	2.579133e-20	
4.000000e-01	0.000000e+00	5.689806e-03	2.844899e-03	0.000000e+00	-1.818989e-19	2.984376e+05	7.851693e+04	6.216603e+04	1.840593e+04	1.824466e+04	6.447832e-21	
6.000000e-01	0.000000e+00	5.689806e-03	2.844899e-03	-1.818989e-19	-1.637090e-18	2.984376e+05	7.851693e+04	6.216603e+04	1.840593e+04	1.824466e+04	5.838760e-20	
8.000000e-01	0.000000e+00	5.689806e-03	2.844899e-03	0.000000e+00	2.728484e-19	2.984376e+05	7.851693e+04	6.216603e+04	1.840593e+04	1.824466e+04	9.671748e-21	
1.000000e+00	0.000000e+00	5.689806e-03	2.844899e-03	3.637979e-19	2.091838e-18	2.984376e+05	7.851693e+04	6.216603e+04	1.840593e+04	1.824466e+04	7.526308e-20	
0.000000e+00	2.000000e-01	5.689806e-03	2.844899e-03	0.000000e+00	0.000000e+00	2.984376e+05	7.851693e+04	6.216603e+04	1.840593e+04	1.824466e+04	0.000000e+00	
2.000000e-01	2.000000e-01	5.689806e-03	2.844899e-03	-3.183231e-19	0.000000e+00	2.984376e+05	7.851693e+04	6.216603e+04	1.840593e+04	1.824466e+04	1.128371e-20	
4.000000e-01	2.000000e-01	5.689806e-03	2.844899e-03	-3.637979e-19	0.000000e+00	2.984376e+05	7.851693e+04	6.216603e+04	1.840593e+04	1.824466e+04	1.289566e-20	
6.000000e-01	2.000000e-01	5.689806e-03	2.844899e-03	0.000000e+00	8.185452e-19	2.984376e+05	7.851693e+04	6.216603e+04	1.840593e+04	1.824466e+04	2.901525e-20	
8.000000e-01	2.000000e-01	5.689806e-03	2.844899e-03	0.000000e+00	-4.547474e-19	2.984376e+05	7.851693e+04	6.216603e+04	1.840593e+04	1.824466e+04	1.611958e-20	
1.000000e+00	2.000000e-01	5.689806e-03	2.844899e-03	0.000000e+00	0.000000e+00	2.984376e+05	7.851693e+04	6.216603e+04	1.840593e+04	1.824466e+04	0.000000e+00	
0.000000e+00	4.000000e-01	5.689806e-03	2.844899e-03	-1.364242e-18	1.818989e-19	2.984376e+05	7.851693e+04	6.216603e+04	1.840593e+04	1.824466e+04	4.878670e-20	
2.000000e-01	4.000000e-01	5.689806e-03	2.844899e-03	1.298641e-18	0.000000e+00	2.984376e+05	7.851693e+04	6.216603e+04	1.840593e+04	1.824466e+04	4.603336e-20	
4.000000e-01	4.000000e-01	5.689806e-03	2.844899e-03	-5.658230e-19	-1.818989e-19	2.984376e+05	7.851693e+04	6.216603e+04	1.840593e+04	1.824466e+04	2.106785e-20	
6.000000e-01	4.000000e-01	5.689806e-03	2.844899e-03	-8.185452e-19	0.000000e+00	2.984376e+05	7.851693e+04	6.216603e+04	1.840593e+04	1.824466e+04	2.901525e-20	
8.000000e-01	4.000000e-01	5.689806e-03	2.844899e-03	0.000000e+00	-9.094947e-20	2.984376e+05	7.851693e+04	6.216603e+04	1.840593e+04	1.824466e+04	3.223916e-21	
1.000000e+00	4.000000e-01	5.689806e-03	2.844899e-03	0.000000e+00	0.000000e+00	2.984376e+05	7.851693e+04	6.216603e+04	1.840593e+04	1.824466e+04	0.000000e+00	
0.000000e+00	6.000000e-01	5.689806e-03	2.844899e-03	-1.818989e-19	0.000000e+00	2.984376e+05	7.851693e+04	6.216603e+04	1.840593e+04	1.824466e+04	6.447832e-21	
2.000000e-01	6.000000e-01	5.689806e-03	2.844899e-03	5.069711e-20	0.000000e+00	2.984376e+05	7.851693e+04	6.216603e+04	1.840593e+04	1.824466e+04	1.797077e-21	
4.000000e-01	6.000000e-01	5.689806e-03	2.844899e-03	1.364242e-19	-1.818989e-19	2.984376e+05	7.851693e+04	6.216603e+04	1.840593e+04	1.824466e+04	8.059790e-21	
6.000000e-01	6.000000e-01	5.689806e-03	2.844899e-03	-2.325961e-19	0.000000e+00	2.984376e+05	7.851693e+04	6.216603e+04	1.840593e+04	1.824466e+04	8.244910e-21	
8.000000e-01	6.000000e-01	5.689806e-03	2.844899e-03	0.000000e+00	-1.364242e-19	2.984376e+05	7.851693e+04	6.216603e+04	1.840593e+04	1.824466e+04	4.835874e-21	
1.000000e+00	6.000000e-01	5.689806e-03	2.844899e-03	2.091838e-18	0.000000e+00	2.984376e+05	7.851693e+04	6.216603e+04	1.840593e+04	1.824466e+04	7.415007e-20	
0.000000e+00	8.000000e-01	5.689806e-03	2.844899e-03	0.000000e+00	-1.818989e-19	2.984376e+05	7.851693e+04	6.216603e+04	1.840593e+04	1.824466e+04	6.447832e-21	
2.000000e-01	8.000000e-01	5.689806e-03	2.844899e-03	-1.364242e-19	5.911716e-19	2.984376e+05	7.851693e+04	6.216603e+04	1.840593e+04	1.824466e+04	2.150620e-20	
4.000000e-01	8.000000e-01	5.689806e-03	2.844899e-03	0.000000e+00	0.000000e+00	2.984376e+05	7.851693e+04	6.216603e+04	1.840593e+04	1.824466e+04	0.000000e+00	
6.000000e-01	8.000000e-01	5.689806e-03	2.844899e-03	0.000000e+00	1.364242e-19	2.984376e+05	7.851693e+04	6.216603e+04	1.840593e+04	1.824466e+04	4.835874e-21	
8.000000e-01	8.000000e-01	5.689806e-03	2.844899e-03	0.000000e+00	9.094947e-20	2.984376e+05	7.851693e+04	6.216603e+04	1.840593e+04	1.824466e+04	3.223916e-21	
1.000000e+00	8.000000e-01	5.689806e-03	2.844899e-03	-1.364242e-18	0.000000e+00	2.984376e+05	7.851693e+04	6.216603e+04	1.840593e+04	1.824466e+04	4.835874e-20	
0.000000e+00	1.000000e+00	5.689806e-03	2.844899e-03	2.728484e-19	-3.637979e-19	2.984376e+05	7.851693e+04	6.216603e+04	1.840593e+04	1.824466e+04	1.611958e-20	
2.000000e-01	1.000000e+00	5.689806e-03	2.844899e-03	0.000000e+00	0.000000e+00	2.984376e+05	7.851693e+04	6.216603e+04	1.840593e+04	1.824466e+04	0.000000e+00	
4.000000e-01	1.000000e+00	5.689806e-03	2.844899e-03	0.000000e+00	0.000000e+00	2.984376e+05	7.851693e+04	6.216603e+04	1.840593e+04	1.824466e+04	0.000000e+00	
6.000000e-01	1.000000e+00	5.689806e-03	2.844899e-03	1.818989e-19	-2.091838e-18	2.984376e+05	7.851693e+04	6.216603e+04	1.840593e+04	1.824466e+04	7.442988e-20	
8.000000e-01	1.000000e+00	5.689806e-03	2.844899e-03	0.000000e+00	2.091838e-18	2.984376e+05	7.851693e+04	6.216603e+04	1.840593e+04	1.824466e+04	7.415007e-20	
1.000000e+00	1.000000e+00	5.689806e-03	2.844899e-03	0.000000e+00	-2.091838e-18	2.984376e+05	7.851693e+04	6.216603e+04	1.840593e+04	1.824466e+04	7.415007e-20	
1	2	8	7
2	3	9	8
3	4	10	9
4	5	11	10
5	6	12	11
7	8	14	13
8	9	15	14
9	10	16	15
10	11	17	16
11	12	18	17
13	14	20	19
14	15	21	20
15	16	22	21
16	17	23	22
17	18	24	23
19	20	26	25
20	21	27	26
21	22	28	27
22	23	29	28
23	24	30	29
25	26	32	31
26	27	33	32
27	28	34	33
28	29	35	34
29	30	36	35
