TITLE = "Visualization of the solution"
VARIABLES = "x","y","Density_N2","Density_N","Momentum_x","Momentum_y","Energy","Energy_ve","Pressure","Temperature","Temperature_ve","Mach"
ZONE STRANDID=541, SOLUTIONTIME=5.4e-07, NODES= 36, ELEMENTS= 25, DATAPACKING=POINT, ZONETYPE=FEQUADRILATERAL
0.000000e+00	0.000000e+00	5.689806e-03	2.844899e-03	0.000000e+00	-3.637979e-19	2.984376e+05	7.915621e+04	6.184639e+04	1.831129e+04	1.831129e+04	1.292895e-20	
2.000000e-01	0.000000e+00	5.689806e-03	2.844899e-03	0.000000e+00	7.275958e-19	2.984376e+05	7.915621e+04	6.184639e+04	1.831129e+04	1.831129e+04	2.585789e-20	
4.000000e-01	0.000000e+00	5.689806e-03	2.844899e-03	0.000000e+00	-1.818989e-19	2.984376e+05	7.915621e+04	6.184639e+04	1.831129e+04	1.831129e+04	6.464473e-21	
6.000000e-01	0.000000e+00	5.689806e-03	2.844899e-03	-1.818989e-19	-7.912604e-18	2.984376e+05	7.915621e+04	6.184639e+04	1.831129e+04	1.831129e+04	2.812789e-19	
8.000000e-01	0.000000e+00	5.689806e-03	2.844899e-03	0.000000e+00	2.728484e-19	2.984376e+05	7.915621e+04	6.184639e+04	1.831129e+04	1.831129e+04	9.696710e-21	
1.000000e+00	0.000000e+00	5.689806e-03	2.844899e-03	3.637979e-19	1.573426e-17	2.984376e+05	7.915621e+04	6.184639e+04	1.831129e+04	1.831129e+04	5.593264e-19	
0.000000e+00	2.000000e-01	5.689806e-03	2.844899e-03	0.000000e+00	0.000000e+00	2.984376e+05	7.915621e+04	6.184639e+04	1.831129e+04	1.831129e+04	0.000000e+00	
2.000000e-01	2.000000e-01	5.689806e-03	2.844899e-03	3.001333e-18	0.000000e+00	2.984376e+05	7.915621e+04	6.184639e+04	1.831129e+04	1.831129e+04	1.066638e-19	
4.000000e-01	2.000000e-01	5.689806e-03	2.844899e-03	-3.637979e-19	0.000000e+00	2.984376e+05	7.915621e+04	6.184639e+04	1.831129e+04	1.831129e+04	1.292895e-20	
6.000000e-01	2.000000e-01	5.689806e-03	2.844899e-03	0.000000e+00	3.956302e-18	2.984376e+05	7.915621e+04	6.184639e+04	1.831129e+04	1.831129e+04	1.406023e-19	
8.000000e-01	2.000000e-01	5.689806e-03	2.844899e-03	0.000000e+00	-7.503331e-18	2.984376e+05	7.915621e+04	6.184639e+04	1.831129e+04	1.831129e+04	2.666595e-19	
1.000000e+00	2.000000e-01	5.689806e-03	2.844899e-03	0.000000e+00	0.000000e+00	2.984376e+05	7.915621e+04	6.184639e+04	1.831129e+04	1.831129e+04	0.000000e+00	
0.000000e+00	4.000000e-01	5.689806e-03	2.844899e-03	4.911271e-18	1.818989e-19	2.984376e+05	7.915621e+04	6.184639e+04	1.831129e+04	1.831129e+04	1.746604e-19	
2.000000e-01	4.000000e-01	5.689806e-03	2.844899e-03	3.278883e-18	0.000000e+00	2.984376e+05	7.915621e+04	6.184639e+04	1.831129e+04	1.831129e+04	1.165276e-19	
4.000000e-01	4.000000e-01	5.689806e-03	2.844899e-03	1.414419e-18	-1.818989e-19	2.984376e+05	7.915621e+04	6.184639e+04	1.831129e+04	1.831129e+04	5.068074e-20	
6.000000e-01	4.000000e-01	5.689806e-03	2.844899e-03	-3.956302e-18	0.000000e+00	2.984376e+05	7.915621e+04	6.184639e+04	1.831129e+04	1.831129e+04	1.406023e-19	
8.000000e-01	4.000000e-01	5.689806e-03	2.844899e-03	0.000000e+00	-9.094947e-20	2.984376e+05	7.915621e+04	6.184639e+04	1.831129e+04	1.831129e+04	3.232237e-21	
1.000000e+00	4.000000e-01	5.689806e-03	2.844899e-03	0.000000e+00	0.000000e+00	2.984376e+05	7.915621e+04	6.184639e+04	1.831129e+04	1.831129e+04	0.000000e+00	
0.000000e+00	6.000000e-01	5.689806e-03	2.844899e-03	-1.818989e-19	0.000000e+00	2.984376e+05	7.915621e+04	6.184639e+04	1.831129e+04	1.831129e+04	6.464473e-21	
2.000000e-01	6.000000e-01	5.689806e-03	2.844899e-03	-3.037403e-18	0.000000e+00	2.984376e+05	7.915621e+04	6.184639e+04	1.831129e+04	1.831129e+04	1.079457e-19	
4.000000e-01	6.000000e-01	5.689806e-03	2.844899e-03	1.364242e-19	-1.818989e-19	2.984376e+05	7.915621e+04	6.184639e+04	1.831129e+04	1.831129e+04	8.080591e-21	
6.000000e-01	6.000000e-01	5.689806e-03	2.844899e-03	2.855504e-18	0.000000e+00	2.984376e+05	7.915621e+04	6.184639e+04	1.831129e+04	1.831129e+04	1.014812e-19	
8.000000e-01	6.000000e-01	5.689806e-03	2.844899e-03	0.000000e+00	-1.364242e-19	2.984376e+05	7.915621e+04	6.184639e+04	1.831129e+04	1.831129e+04	4.848355e-21	
1.000000e+00	6.000000e-01	5.689806e-03	2.844899e-03	8.367351e-18	0.000000e+00	2.984376e+05	7.915621e+04	6.184639e+04	1.831129e+04	1.831129e+04	2.973658e-19	
0.000000e+00	8.000000e-01	5.689806e-03	2.844899e-03	0.000000e+00	-1.818989e-19	2.984376e+05	7.915621e+04	6.184639e+04	1.831129e+04	1.831129e+04	6.464473e-21	
2.000000e-01	8.000000e-01	5.689806e-03	2.844899e-03	-1.364242e-19	-2.728484e-18	2.984376e+05	7.915621e+04	6.184639e+04	1.831129e+04	1.831129e+04	9.708823e-20	
4.000000e-01	8.000000e-01	5.689806e-03	2.844899e-03	0.000000e+00	0.000000e+00	2.984376e+05	7.915621e+04	6.184639e+04	1.831129e+04	1.831129e+04	0.000000e+00	
6.000000e-01	8.000000e-01	5.689806e-03	2.844899e-03	0.000000e+00	1.364242e-19	2.984376e+05	7.915621e+04	6.184639e+04	1.831129e+04	1.831129e+04	4.848355e-21	
8.000000e-01	8.000000e-01	5.689806e-03	2.844899e-03	0.000000e+00	9.094947e-20	2.984376e+05	7.915621e+04	6.184639e+04	1.831129e+04	1.831129e+04	3.232237e-21	
1.000000e+00	8.000000e-01	5.689806e-03	2.844899e-03	-7.639755e-18	0.000000e+00	2.984376e+05	7.915621e+04	6.184639e+04	1.831129e+04	1.831129e+04	2.715079e-19	
0.000000e+00	1.000000e+00	5.689806e-03	2.844899e-03	2.728484e-19	-3.637979e-19	2.984376e+05	7.915621e+04	6.184639e+04	1.831129e+04	1.831129e+04	1.616118e-20	
2.000000e-01	1.000000e+00	5.689806e-03	2.844899e-03	0.000000e+00	0.000000e+00	2.984376e+05	7.915621e+04	6.184639e+04	1.831129e+04	1.831129e+04	0.000000e+00	
4.000000e-01	1.000000e+00	5.689806e-03	2.844899e-03	0.000000e+00	0.000000e+00	2.984376e+05	7.915621e+04	6.184639e+04	1.831129e+04	1.831129e+04	0.000000e+00	
6.000000e-01	1.000000e+00	5.689806e-03	2.844899e-03	1.818989e-19	-8.367351e-18	2.984376e+05	7.915621e+04	6.184639e+04	1.831129e+04	1.831129e+04	2.974360e-19	
8.000000e-01	1.000000e+00	5.689806e-03	2.844899e-03	0.000000e+00	2.246452e-17	2.984376e+05	7.915621e+04	6.184639e+04	1.831129e+04	1.831129e+04	7.983624e-19	
1.000000e+00	1.000000e+00	5.689806e-03	2.844899e-03	0.000000e+00	-1.573426e-17	2.984376e+05	7.915621e+04	6.184639e+04	1.831129e+04	1.831129e+04	5.591769e-19	
1	2	8	7
2	3	9	8
3	4	10	9
4	5	11	10
5	6	12	11
7	8	14	13
8	9	15	14
9	10	16	15
10	11	17	16
11	12	18	17
13	14	20	19
14	15	21	20
15	16	22	21
16	17	23	22
17	18	24	23
19	20	26	25
20	21	27	26
21	22	28	27
22	23	29	28
23	24	30	29
25	26	32	31
26	27	33	32
27	28	34	33
28	29	35	34
29	30	36	35
