TITLE = "Visualization of the solution"
VARIABLES = "x","y","Density_N2","Density_N","Momentum_x","Momentum_y","Energy","Energy_ve","Pressure","Temperature","Temperature_ve","Mach"
ZONE STRANDID=481, SOLUTIONTIME=4.8e-07, NODES= 36, ELEMENTS= 25, DATAPACKING=POINT, ZONETYPE=FEQUADRILATERAL
0.000000e+00	0.000000e+00	5.689806e-03	2.844899e-03	0.000000e+00	-3.637979e-19	2.984376e+05	7.915614e+04	6.184642e+04	1.831130e+04	1.831128e+04	1.292894e-20	
2.000000e-01	0.000000e+00	5.689806e-03	2.844899e-03	0.000000e+00	7.275958e-19	2.984376e+05	7.915614e+04	6.184642e+04	1.831130e+04	1.831128e+04	2.585788e-20	
4.000000e-01	0.000000e+00	5.689806e-03	2.844899e-03	0.000000e+00	-1.818989e-19	2.984376e+05	7.915614e+04	6.184642e+04	1.831130e+04	1.831128e+04	6.464471e-21	
6.000000e-01	0.000000e+00	5.689806e-03	2.844899e-03	-1.818989e-19	-6.912160e-18	2.984376e+05	7.915614e+04	6.184642e+04	1.831130e+04	1.831128e+04	2.457349e-19	
8.000000e-01	0.000000e+00	5.689806e-03	2.844899e-03	0.000000e+00	2.728484e-19	2.984376e+05	7.915614e+04	6.184642e+04	1.831130e+04	1.831128e+04	9.696707e-21	
1.000000e+00	0.000000e+00	5.689806e-03	2.844899e-03	3.637979e-19	1.382432e-17	2.984376e+05	7.915614e+04	6.184642e+04	1.831130e+04	1.831128e+04	4.914699e-19	
0.000000e+00	2.000000e-01	5.689806e-03	2.844899e-03	0.000000e+00	0.000000e+00	2.984376e+05	7.915614e+04	6.184642e+04	1.831130e+04	1.831128e+04	0.000000e+00	
2.000000e-01	2.000000e-01	5.689806e-03	2.844899e-03	2.546585e-18	0.000000e+00	2.984376e+05	7.915614e+04	6.184642e+04	1.831130e+04	1.831128e+04	9.050260e-20	
4.000000e-01	2.000000e-01	5.689806e-03	2.844899e-03	-3.637979e-19	0.000000e+00	2.984376e+05	7.915614e+04	6.184642e+04	1.831130e+04	1.831128e+04	1.292894e-20	
6.000000e-01	2.000000e-01	5.689806e-03	2.844899e-03	0.000000e+00	3.456080e-18	2.984376e+05	7.915614e+04	6.184642e+04	1.831130e+04	1.831128e+04	1.228250e-19	
8.000000e-01	2.000000e-01	5.689806e-03	2.844899e-03	0.000000e+00	-6.320988e-18	2.984376e+05	7.915614e+04	6.184642e+04	1.831130e+04	1.831128e+04	2.246404e-19	
1.000000e+00	2.000000e-01	5.689806e-03	2.844899e-03	0.000000e+00	0.000000e+00	2.984376e+05	7.915614e+04	6.184642e+04	1.831130e+04	1.831128e+04	0.000000e+00	
0.000000e+00	4.000000e-01	5.689806e-03	2.844899e-03	3.910827e-18	1.818989e-19	2.984376e+05	7.915614e+04	6.184642e+04	1.831130e+04	1.831128e+04	1.391364e-19	
2.000000e-01	4.000000e-01	5.689806e-03	2.844899e-03	2.971662e-18	0.000000e+00	2.984376e+05	7.915614e+04	6.184642e+04	1.831130e+04	1.831128e+04	1.056093e-19	
4.000000e-01	4.000000e-01	5.689806e-03	2.844899e-03	1.107198e-18	-1.818989e-19	2.984376e+05	7.915614e+04	6.184642e+04	1.831130e+04	1.831128e+04	3.987597e-20	
6.000000e-01	4.000000e-01	5.689806e-03	2.844899e-03	-3.456080e-18	0.000000e+00	2.984376e+05	7.915614e+04	6.184642e+04	1.831130e+04	1.831128e+04	1.228250e-19	
8.000000e-01	4.000000e-01	5.689806e-03	2.844899e-03	0.000000e+00	-9.094947e-20	2.984376e+05	7.915614e+04	6.184642e+04	1.831130e+04	1.831128e+04	3.232236e-21	
1.000000e+00	4.000000e-01	5.689806e-03	2.844899e-03	0.000000e+00	0.000000e+00	2.984376e+05	7.915614e+04	6.184642e+04	1.831130e+04	1.831128e+04	0.000000e+00	
0.000000e+00	6.000000e-01	5.689806e-03	2.844899e-03	-1.818989e-19	0.000000e+00	2.984376e+05	7.915614e+04	6.184642e+04	1.831130e+04	1.831128e+04	6.464471e-21	
2.000000e-01	6.000000e-01	5.689806e-03	2.844899e-03	-2.469502e-18	0.000000e+00	2.984376e+05	7.915614e+04	6.184642e+04	1.831130e+04	1.831128e+04	8.776315e-20	
4.000000e-01	6.000000e-01	5.689806e-03	2.844899e-03	1.364242e-19	-1.818989e-19	2.984376e+05	7.915614e+04	6.184642e+04	1.831130e+04	1.831128e+04	8.080589e-21	
6.000000e-01	6.000000e-01	5.689806e-03	2.844899e-03	2.287603e-18	0.000000e+00	2.984376e+05	7.915614e+04	6.184642e+04	1.831130e+04	1.831128e+04	8.129868e-20	
8.000000e-01	6.000000e-01	5.689806e-03	2.844899e-03	0.000000e+00	-1.364242e-19	2.984376e+05	7.915614e+04	6.184642e+04	1.831130e+04	1.831128e+04	4.848353e-21	
1.000000e+00	6.000000e-01	5.689806e-03	2.844899e-03	7.366907e-18	0.000000e+00	2.984376e+05	7.915614e+04	6.184642e+04	1.831130e+04	1.831128e+04	2.618111e-19	
0.000000e+00	8.000000e-01	5.689806e-03	2.844899e-03	0.000000e+00	-1.818989e-19	2.984376e+05	7.915614e+04	6.184642e+04	1.831130e+04	1.831128e+04	6.464471e-21	
2.000000e-01	8.000000e-01	5.689806e-03	2.844899e-03	-1.364242e-19	-2.273737e-18	2.984376e+05	7.915614e+04	6.184642e+04	1.831130e+04	1.831128e+04	8.095121e-20	
4.000000e-01	8.000000e-01	5.689806e-03	2.844899e-03	0.000000e+00	0.000000e+00	2.984376e+05	7.915614e+04	6.184642e+04	1.831130e+04	1.831128e+04	0.000000e+00	
6.000000e-01	8.000000e-01	5.689806e-03	2.844899e-03	0.000000e+00	1.364242e-19	2.984376e+05	7.915614e+04	6.184642e+04	1.831130e+04	1.831128e+04	4.848353e-21	
8.000000e-01	8.000000e-01	5.689806e-03	2.844899e-03	0.000000e+00	9.094947e-20	2.984376e+05	7.915614e+04	6.184642e+04	1.831130e+04	1.831128e+04	3.232236e-21	
1.000000e+00	8.000000e-01	5.689806e-03	2.844899e-03	-6.639311e-18	0.000000e+00	2.984376e+05	7.915614e+04	6.184642e+04	1.831130e+04	1.831128e+04	2.359532e-19	
0.000000e+00	1.000000e+00	5.689806e-03	2.844899e-03	2.728484e-19	-3.637979e-19	2.984376e+05	7.915614e+04	6.184642e+04	1.831130e+04	1.831128e+04	1.616118e-20	
2.000000e-01	1.000000e+00	5.689806e-03	2.844899e-03	0.000000e+00	0.000000e+00	2.984376e+05	7.915614e+04	6.184642e+04	1.831130e+04	1.831128e+04	0.000000e+00	
4.000000e-01	1.000000e+00	5.689806e-03	2.844899e-03	0.000000e+00	0.000000e+00	2.984376e+05	7.915614e+04	6.184642e+04	1.831130e+04	1.831128e+04	0.000000e+00	
6.000000e-01	1.000000e+00	5.689806e-03	2.844899e-03	1.818989e-19	-7.366907e-18	2.984376e+05	7.915614e+04	6.184642e+04	1.831130e+04	1.831128e+04	2.618909e-19	
8.000000e-01	1.000000e+00	5.689806e-03	2.844899e-03	0.000000e+00	1.909939e-17	2.984376e+05	7.915614e+04	6.184642e+04	1.831130e+04	1.831128e+04	6.787695e-19	
1.000000e+00	1.000000e+00	5.689806e-03	2.844899e-03	0.000000e+00	-1.382432e-17	2.984376e+05	7.915614e+04	6.184642e+04	1.831130e+04	1.831128e+04	4.912998e-19	
1	2	8	7
2	3	9	8
3	4	10	9
4	5	11	10
5	6	12	11
7	8	14	13
8	9	15	14
9	10	16	15
10	11	17	16
11	12	18	17
13	14	20	19
14	15	21	20
15	16	22	21
16	17	23	22
17	18	24	23
19	20	26	25
20	21	27	26
21	22	28	27
22	23	29	28
23	24	30	29
25	26	32	31
26	27	33	32
27	28	34	33
28	29	35	34
29	30	36	35
