TITLE = "Visualization of the solution"
VARIABLES = "x","y","Density_N2","Density_N","Momentum_x","Momentum_y","Energy","Energy_ve","Pressure","Temperature","Temperature_ve","Mach"
ZONE STRANDID=271, SOLUTIONTIME=2.7e-07, NODES= 36, ELEMENTS= 25, DATAPACKING=POINT, ZONETYPE=FEQUADRILATERAL
0.000000e+00	0.000000e+00	5.689806e-03	2.844899e-03	0.000000e+00	-3.637979e-19	2.984376e+05	7.913076e+04	6.185911e+04	1.831506e+04	1.830864e+04	1.292762e-20	
2.000000e-01	0.000000e+00	5.689806e-03	2.844899e-03	0.000000e+00	7.275958e-19	2.984376e+05	7.913076e+04	6.185911e+04	1.831506e+04	1.830864e+04	2.585523e-20	
4.000000e-01	0.000000e+00	5.689806e-03	2.844899e-03	0.000000e+00	-1.818989e-19	2.984376e+05	7.913076e+04	6.185911e+04	1.831506e+04	1.830864e+04	6.463808e-21	
6.000000e-01	0.000000e+00	5.689806e-03	2.844899e-03	-1.818989e-19	-3.819878e-18	2.984376e+05	7.913076e+04	6.185911e+04	1.831506e+04	1.830864e+04	1.358938e-19	
8.000000e-01	0.000000e+00	5.689806e-03	2.844899e-03	0.000000e+00	2.728484e-19	2.984376e+05	7.913076e+04	6.185911e+04	1.831506e+04	1.830864e+04	9.695712e-21	
1.000000e+00	0.000000e+00	5.689806e-03	2.844899e-03	3.637979e-19	6.730261e-18	2.984376e+05	7.913076e+04	6.185911e+04	1.831506e+04	1.830864e+04	2.395100e-19	
0.000000e+00	2.000000e-01	5.689806e-03	2.844899e-03	0.000000e+00	0.000000e+00	2.984376e+05	7.913076e+04	6.185911e+04	1.831506e+04	1.830864e+04	0.000000e+00	
2.000000e-01	2.000000e-01	5.689806e-03	2.844899e-03	6.821210e-19	0.000000e+00	2.984376e+05	7.913076e+04	6.185911e+04	1.831506e+04	1.830864e+04	2.423928e-20	
4.000000e-01	2.000000e-01	5.689806e-03	2.844899e-03	-3.637979e-19	0.000000e+00	2.984376e+05	7.913076e+04	6.185911e+04	1.831506e+04	1.830864e+04	1.292762e-20	
6.000000e-01	2.000000e-01	5.689806e-03	2.844899e-03	0.000000e+00	1.909939e-18	2.984376e+05	7.913076e+04	6.185911e+04	1.831506e+04	1.830864e+04	6.786999e-20	
8.000000e-01	2.000000e-01	5.689806e-03	2.844899e-03	0.000000e+00	-2.364686e-18	2.984376e+05	7.913076e+04	6.185911e+04	1.831506e+04	1.830864e+04	8.402951e-20	
1.000000e+00	2.000000e-01	5.689806e-03	2.844899e-03	0.000000e+00	0.000000e+00	2.984376e+05	7.913076e+04	6.185911e+04	1.831506e+04	1.830864e+04	0.000000e+00	
0.000000e+00	4.000000e-01	5.689806e-03	2.844899e-03	8.185452e-19	1.818989e-19	2.984376e+05	7.913076e+04	6.185911e+04	1.831506e+04	1.830864e+04	2.979668e-20	
2.000000e-01	4.000000e-01	5.689806e-03	2.844899e-03	1.897048e-18	0.000000e+00	2.984376e+05	7.913076e+04	6.185911e+04	1.831506e+04	1.830864e+04	6.741192e-20	
4.000000e-01	4.000000e-01	5.689806e-03	2.844899e-03	3.258422e-20	-1.818989e-19	2.984376e+05	7.913076e+04	6.185911e+04	1.831506e+04	1.830864e+04	6.566697e-21	
6.000000e-01	4.000000e-01	5.689806e-03	2.844899e-03	-1.909939e-18	0.000000e+00	2.984376e+05	7.913076e+04	6.185911e+04	1.831506e+04	1.830864e+04	6.786999e-20	
8.000000e-01	4.000000e-01	5.689806e-03	2.844899e-03	0.000000e+00	-9.094947e-20	2.984376e+05	7.913076e+04	6.185911e+04	1.831506e+04	1.830864e+04	3.231904e-21	
1.000000e+00	4.000000e-01	5.689806e-03	2.844899e-03	0.000000e+00	0.000000e+00	2.984376e+05	7.913076e+04	6.185911e+04	1.831506e+04	1.830864e+04	0.000000e+00	
0.000000e+00	6.000000e-01	5.689806e-03	2.844899e-03	-1.818989e-19	0.000000e+00	2.984376e+05	7.913076e+04	6.185911e+04	1.831506e+04	1.830864e+04	6.463808e-21	
2.000000e-01	6.000000e-01	5.689806e-03	2.844899e-03	-6.624273e-19	0.000000e+00	2.984376e+05	7.913076e+04	6.185911e+04	1.831506e+04	1.830864e+04	2.353946e-20	
4.000000e-01	6.000000e-01	5.689806e-03	2.844899e-03	1.364242e-19	-1.818989e-19	2.984376e+05	7.913076e+04	6.185911e+04	1.831506e+04	1.830864e+04	8.079760e-21	
6.000000e-01	6.000000e-01	5.689806e-03	2.844899e-03	4.805284e-19	0.000000e+00	2.984376e+05	7.913076e+04	6.185911e+04	1.831506e+04	1.830864e+04	1.707565e-20	
8.000000e-01	6.000000e-01	5.689806e-03	2.844899e-03	0.000000e+00	-1.364242e-19	2.984376e+05	7.913076e+04	6.185911e+04	1.831506e+04	1.830864e+04	4.847856e-21	
1.000000e+00	6.000000e-01	5.689806e-03	2.844899e-03	4.274625e-18	0.000000e+00	2.984376e+05	7.913076e+04	6.185911e+04	1.831506e+04	1.830864e+04	1.518995e-19	
0.000000e+00	8.000000e-01	5.689806e-03	2.844899e-03	0.000000e+00	-1.818989e-19	2.984376e+05	7.913076e+04	6.185911e+04	1.831506e+04	1.830864e+04	6.463808e-21	
2.000000e-01	8.000000e-01	5.689806e-03	2.844899e-03	-1.364242e-19	-4.092726e-19	2.984376e+05	7.913076e+04	6.185911e+04	1.831506e+04	1.830864e+04	1.533027e-20	
4.000000e-01	8.000000e-01	5.689806e-03	2.844899e-03	0.000000e+00	0.000000e+00	2.984376e+05	7.913076e+04	6.185911e+04	1.831506e+04	1.830864e+04	0.000000e+00	
6.000000e-01	8.000000e-01	5.689806e-03	2.844899e-03	0.000000e+00	1.364242e-19	2.984376e+05	7.913076e+04	6.185911e+04	1.831506e+04	1.830864e+04	4.847856e-21	
8.000000e-01	8.000000e-01	5.689806e-03	2.844899e-03	0.000000e+00	9.094947e-20	2.984376e+05	7.913076e+04	6.185911e+04	1.831506e+04	1.830864e+04	3.231904e-21	
1.000000e+00	8.000000e-01	5.689806e-03	2.844899e-03	-3.547029e-18	0.000000e+00	2.984376e+05	7.913076e+04	6.185911e+04	1.831506e+04	1.830864e+04	1.260443e-19	
0.000000e+00	1.000000e+00	5.689806e-03	2.844899e-03	2.728484e-19	-3.637979e-19	2.984376e+05	7.913076e+04	6.185911e+04	1.831506e+04	1.830864e+04	1.615952e-20	
2.000000e-01	1.000000e+00	5.689806e-03	2.844899e-03	0.000000e+00	0.000000e+00	2.984376e+05	7.913076e+04	6.185911e+04	1.831506e+04	1.830864e+04	0.000000e+00	
4.000000e-01	1.000000e+00	5.689806e-03	2.844899e-03	0.000000e+00	0.000000e+00	2.984376e+05	7.913076e+04	6.185911e+04	1.831506e+04	1.830864e+04	0.000000e+00	
6.000000e-01	1.000000e+00	5.689806e-03	2.844899e-03	1.818989e-19	-4.274625e-18	2.984376e+05	7.913076e+04	6.185911e+04	1.831506e+04	1.830864e+04	1.520370e-19	
8.000000e-01	1.000000e+00	5.689806e-03	2.844899e-03	0.000000e+00	8.094503e-18	2.984376e+05	7.913076e+04	6.185911e+04	1.831506e+04	1.830864e+04	2.876395e-19	
1.000000e+00	1.000000e+00	5.689806e-03	2.844899e-03	0.000000e+00	-6.730261e-18	2.984376e+05	7.913076e+04	6.185911e+04	1.831506e+04	1.830864e+04	2.391609e-19	
1	2	8	7
2	3	9	8
3	4	10	9
4	5	11	10
5	6	12	11
7	8	14	13
8	9	15	14
9	10	16	15
10	11	17	16
11	12	18	17
13	14	20	19
14	15	21	20
15	16	22	21
16	17	23	22
17	18	24	23
19	20	26	25
20	21	27	26
21	22	28	27
22	23	29	28
23	24	30	29
25	26	32	31
26	27	33	32
27	28	34	33
28	29	35	34
29	30	36	35
