TITLE = "Visualization of the solution"
VARIABLES = "x","y","Density_N2","Density_N","Momentum_x","Momentum_y","Energy","Energy_ve","Pressure","Temperature","Temperature_ve","Mach"
ZONE STRANDID=251, SOLUTIONTIME=2.5e-07, NODES= 36, ELEMENTS= 25, DATAPACKING=POINT, ZONETYPE=FEQUADRILATERAL
0.000000e+00	0.000000e+00	5.689806e-03	2.844899e-03	0.000000e+00	-3.637979e-19	2.984376e+05	7.911271e+04	6.186814e+04	1.831773e+04	1.830676e+04	1.292667e-20	
2.000000e-01	0.000000e+00	5.689806e-03	2.844899e-03	0.000000e+00	7.275958e-19	2.984376e+05	7.911271e+04	6.186814e+04	1.831773e+04	1.830676e+04	2.585335e-20	
4.000000e-01	0.000000e+00	5.689806e-03	2.844899e-03	0.000000e+00	-1.818989e-19	2.984376e+05	7.911271e+04	6.186814e+04	1.831773e+04	1.830676e+04	6.463337e-21	
6.000000e-01	0.000000e+00	5.689806e-03	2.844899e-03	-1.818989e-19	-3.637979e-18	2.984376e+05	7.911271e+04	6.186814e+04	1.831773e+04	1.830676e+04	1.294282e-19	
8.000000e-01	0.000000e+00	5.689806e-03	2.844899e-03	0.000000e+00	2.728484e-19	2.984376e+05	7.911271e+04	6.186814e+04	1.831773e+04	1.830676e+04	9.695005e-21	
1.000000e+00	0.000000e+00	5.689806e-03	2.844899e-03	3.637979e-19	6.093615e-18	2.984376e+05	7.911271e+04	6.186814e+04	1.831773e+04	1.830676e+04	2.169073e-19	
0.000000e+00	2.000000e-01	5.689806e-03	2.844899e-03	0.000000e+00	0.000000e+00	2.984376e+05	7.911271e+04	6.186814e+04	1.831773e+04	1.830676e+04	0.000000e+00	
2.000000e-01	2.000000e-01	5.689806e-03	2.844899e-03	5.002221e-19	0.000000e+00	2.984376e+05	7.911271e+04	6.186814e+04	1.831773e+04	1.830676e+04	1.777418e-20	
4.000000e-01	2.000000e-01	5.689806e-03	2.844899e-03	-3.637979e-19	0.000000e+00	2.984376e+05	7.911271e+04	6.186814e+04	1.831773e+04	1.830676e+04	1.292667e-20	
6.000000e-01	2.000000e-01	5.689806e-03	2.844899e-03	0.000000e+00	1.818989e-18	2.984376e+05	7.911271e+04	6.186814e+04	1.831773e+04	1.830676e+04	6.463337e-20	
8.000000e-01	2.000000e-01	5.689806e-03	2.844899e-03	0.000000e+00	-1.909939e-18	2.984376e+05	7.911271e+04	6.186814e+04	1.831773e+04	1.830676e+04	6.786503e-20	
1.000000e+00	2.000000e-01	5.689806e-03	2.844899e-03	0.000000e+00	0.000000e+00	2.984376e+05	7.911271e+04	6.186814e+04	1.831773e+04	1.830676e+04	0.000000e+00	
0.000000e+00	4.000000e-01	5.689806e-03	2.844899e-03	6.366463e-19	1.818989e-19	2.984376e+05	7.911271e+04	6.186814e+04	1.831773e+04	1.830676e+04	2.352690e-20	
2.000000e-01	4.000000e-01	5.689806e-03	2.844899e-03	1.795115e-18	0.000000e+00	2.984376e+05	7.911271e+04	6.186814e+04	1.831773e+04	1.830676e+04	6.378503e-20	
4.000000e-01	4.000000e-01	5.689806e-03	2.844899e-03	-6.934950e-20	-1.818989e-19	2.984376e+05	7.911271e+04	6.186814e+04	1.831773e+04	1.830676e+04	6.917141e-21	
6.000000e-01	4.000000e-01	5.689806e-03	2.844899e-03	-1.818989e-18	0.000000e+00	2.984376e+05	7.911271e+04	6.186814e+04	1.831773e+04	1.830676e+04	6.463337e-20	
8.000000e-01	4.000000e-01	5.689806e-03	2.844899e-03	0.000000e+00	-9.094947e-20	2.984376e+05	7.911271e+04	6.186814e+04	1.831773e+04	1.830676e+04	3.231668e-21	
1.000000e+00	4.000000e-01	5.689806e-03	2.844899e-03	0.000000e+00	0.000000e+00	2.984376e+05	7.911271e+04	6.186814e+04	1.831773e+04	1.830676e+04	0.000000e+00	
0.000000e+00	6.000000e-01	5.689806e-03	2.844899e-03	-1.818989e-19	0.000000e+00	2.984376e+05	7.911271e+04	6.186814e+04	1.831773e+04	1.830676e+04	6.463337e-21	
2.000000e-01	6.000000e-01	5.689806e-03	2.844899e-03	-4.115474e-19	0.000000e+00	2.984376e+05	7.911271e+04	6.186814e+04	1.831773e+04	1.830676e+04	1.462334e-20	
4.000000e-01	6.000000e-01	5.689806e-03	2.844899e-03	1.364242e-19	-1.818989e-19	2.984376e+05	7.911271e+04	6.186814e+04	1.831773e+04	1.830676e+04	8.079171e-21	
6.000000e-01	6.000000e-01	5.689806e-03	2.844899e-03	2.296485e-19	0.000000e+00	2.984376e+05	7.911271e+04	6.186814e+04	1.831773e+04	1.830676e+04	8.160000e-21	
8.000000e-01	6.000000e-01	5.689806e-03	2.844899e-03	0.000000e+00	-1.364242e-19	2.984376e+05	7.911271e+04	6.186814e+04	1.831773e+04	1.830676e+04	4.847502e-21	
1.000000e+00	6.000000e-01	5.689806e-03	2.844899e-03	4.092726e-18	0.000000e+00	2.984376e+05	7.911271e+04	6.186814e+04	1.831773e+04	1.830676e+04	1.454251e-19	
0.000000e+00	8.000000e-01	5.689806e-03	2.844899e-03	0.000000e+00	-1.818989e-19	2.984376e+05	7.911271e+04	6.186814e+04	1.831773e+04	1.830676e+04	6.463337e-21	
2.000000e-01	8.000000e-01	5.689806e-03	2.844899e-03	-1.364242e-19	-2.273737e-19	2.984376e+05	7.911271e+04	6.186814e+04	1.831773e+04	1.830676e+04	9.421851e-21	
4.000000e-01	8.000000e-01	5.689806e-03	2.844899e-03	0.000000e+00	0.000000e+00	2.984376e+05	7.911271e+04	6.186814e+04	1.831773e+04	1.830676e+04	0.000000e+00	
6.000000e-01	8.000000e-01	5.689806e-03	2.844899e-03	0.000000e+00	1.364242e-19	2.984376e+05	7.911271e+04	6.186814e+04	1.831773e+04	1.830676e+04	4.847502e-21	
8.000000e-01	8.000000e-01	5.689806e-03	2.844899e-03	0.000000e+00	9.094947e-20	2.984376e+05	7.911271e+04	6.186814e+04	1.831773e+04	1.830676e+04	3.231668e-21	
1.000000e+00	8.000000e-01	5.689806e-03	2.844899e-03	-3.365130e-18	0.000000e+00	2.984376e+05	7.911271e+04	6.186814e+04	1.831773e+04	1.830676e+04	1.195717e-19	
0.000000e+00	1.000000e+00	5.689806e-03	2.844899e-03	2.728484e-19	-3.637979e-19	2.984376e+05	7.911271e+04	6.186814e+04	1.831773e+04	1.830676e+04	1.615834e-20	
2.000000e-01	1.000000e+00	5.689806e-03	2.844899e-03	0.000000e+00	0.000000e+00	2.984376e+05	7.911271e+04	6.186814e+04	1.831773e+04	1.830676e+04	0.000000e+00	
4.000000e-01	1.000000e+00	5.689806e-03	2.844899e-03	0.000000e+00	0.000000e+00	2.984376e+05	7.911271e+04	6.186814e+04	1.831773e+04	1.830676e+04	0.000000e+00	
6.000000e-01	1.000000e+00	5.689806e-03	2.844899e-03	1.818989e-19	-4.092726e-18	2.984376e+05	7.911271e+04	6.186814e+04	1.831773e+04	1.830676e+04	1.455686e-19	
8.000000e-01	1.000000e+00	5.689806e-03	2.844899e-03	0.000000e+00	7.003109e-18	2.984376e+05	7.911271e+04	6.186814e+04	1.831773e+04	1.830676e+04	2.488385e-19	
1.000000e+00	1.000000e+00	5.689806e-03	2.844899e-03	0.000000e+00	-6.093615e-18	2.984376e+05	7.911271e+04	6.186814e+04	1.831773e+04	1.830676e+04	2.165218e-19	
1	2	8	7
2	3	9	8
3	4	10	9
4	5	11	10
5	6	12	11
7	8	14	13
8	9	15	14
9	10	16	15
10	11	17	16
11	12	18	17
13	14	20	19
14	15	21	20
15	16	22	21
16	17	23	22
17	18	24	23
19	20	26	25
20	21	27	26
21	22	28	27
22	23	29	28
23	24	30	29
25	26	32	31
26	27	33	32
27	28	34	33
28	29	35	34
29	30	36	35
