TITLE = "Visualization of the surface solution"
VARIABLES = "x" "y" "Density[0]" "Density[1]" "Momentum_x" "Momentum_y" "Energy" "Electronic_Energy" "Total_Density" "Pressure" "Temperature" "Tve" "Mach" "C<sub>p</sub>" 
ZONE NODES= 3, ELEMENTS= 2, DATAPACKING=POINT, ZONETYPE=FELINESEG
9.848077e-01	1.736484e-01	1.359827e+00	1.359963e-04	2.351966e+03	4.754741e+00	1.924362e+06	1.003088e+01	1.359963e+00	1.228955e+05	3.044368e+02	2.881500e+02	4.862186e+00	1.216453e-02	
9.848077e-01	5.209451e-01	1.184521e+00	1.184640e-04	2.049700e+03	1.084011e-14	1.663587e+06	8.737721e+00	1.184640e+00	1.013250e+05	2.881500e+02	2.881500e+02	5.000000e+00	-3.282583e-17	
9.848077e-01	3.443102e-01	1.184521e+00	1.184640e-04	2.049700e+03	-9.076005e-15	1.663587e+06	8.737721e+00	1.184640e+00	1.013250e+05	2.881500e+02	2.881500e+02	5.000000e+00	-3.282583e-17	
1	3
3	2
