TITLE = "Visualization of the volumetric solution"
VARIABLES = "x","y","Density","Momentum_x","Momentum_y","Energy","Pressure","Temperature","Mach","C<sub>p</sub>"
ZONE NODES= 36, ELEMENTS= 25, DATAPACKING=POINT, ZONETYPE=FEQUADRILATERAL
0.000000e+00	0.000000e+00	1.176591e+00	8.170811e+01	-3.571818e-14	2.561496e+05	1.013250e+05	3.000000e+02	2.000000e-01	0.000000e+00	
2.000000e-01	0.000000e+00	1.176591e+00	8.170811e+01	-3.274166e-14	2.561496e+05	1.013250e+05	3.000000e+02	2.000000e-01	0.000000e+00	
4.000000e-01	0.000000e+00	1.176591e+00	8.170811e+01	-4.911249e-14	2.561496e+05	1.013250e+05	3.000000e+02	2.000000e-01	0.000000e+00	
6.000000e-01	0.000000e+00	1.176591e+00	8.170811e+01	-4.911249e-14	2.561496e+05	1.013250e+05	3.000000e+02	2.000000e-01	0.000000e+00	
8.000000e-01	0.000000e+00	1.176591e+00	8.170811e+01	-4.911249e-14	2.561496e+05	1.013250e+05	3.000000e+02	2.000000e-01	0.000000e+00	
1.000000e+00	0.000000e+00	1.176591e+00	8.170811e+01	-4.295938e-14	2.561496e+05	1.013250e+05	3.000000e+02	2.000000e-01	0.000000e+00	
0.000000e+00	2.000000e-01	1.176591e+00	8.170811e+01	-2.311176e-14	2.561496e+05	1.013250e+05	3.000000e+02	2.000000e-01	-5.129151e-15	
2.000000e-01	2.000000e-01	1.176591e+00	8.170811e+01	-1.190606e-14	2.561496e+05	1.013250e+05	3.000000e+02	2.000000e-01	-1.025830e-14	
4.000000e-01	2.000000e-01	1.176591e+00	8.170811e+01	1.190606e-14	2.561496e+05	1.013250e+05	3.000000e+02	2.000000e-01	-5.129151e-15	
6.000000e-01	2.000000e-01	1.176591e+00	8.170811e+01	-2.381212e-14	2.561496e+05	1.013250e+05	3.000000e+02	2.000000e-01	0.000000e+00	
8.000000e-01	2.000000e-01	1.176591e+00	8.170811e+01	-2.381212e-14	2.561496e+05	1.013250e+05	3.000000e+02	2.000000e-01	0.000000e+00	
1.000000e+00	2.000000e-01	1.176591e+00	8.170811e+01	-2.853111e-14	2.561496e+05	1.013250e+05	3.000000e+02	2.000000e-01	0.000000e+00	
0.000000e+00	4.000000e-01	1.176591e+00	8.170811e+01	0.000000e+00	2.561496e+05	1.013250e+05	3.000000e+02	2.000000e-01	-5.129151e-15	
2.000000e-01	4.000000e-01	1.176591e+00	8.170811e+01	-1.190606e-14	2.561496e+05	1.013250e+05	3.000000e+02	2.000000e-01	-1.025830e-14	
4.000000e-01	4.000000e-01	1.176591e+00	8.170811e+01	-1.190606e-14	2.561496e+05	1.013250e+05	3.000000e+02	2.000000e-01	-5.129151e-15	
6.000000e-01	4.000000e-01	1.176591e+00	8.170811e+01	0.000000e+00	2.561496e+05	1.013250e+05	3.000000e+02	2.000000e-01	-5.129151e-15	
8.000000e-01	4.000000e-01	1.176591e+00	8.170811e+01	-1.190606e-14	2.561496e+05	1.013250e+05	3.000000e+02	2.000000e-01	0.000000e+00	
1.000000e+00	4.000000e-01	1.176591e+00	8.170811e+01	-2.654279e-14	2.561496e+05	1.013250e+05	3.000000e+02	2.000000e-01	1.025830e-14	
0.000000e+00	6.000000e-01	1.176591e+00	8.170811e+01	0.000000e+00	2.561496e+05	1.013250e+05	3.000000e+02	2.000000e-01	-5.129151e-15	
2.000000e-01	6.000000e-01	1.176591e+00	8.170811e+01	-1.190606e-14	2.561496e+05	1.013250e+05	3.000000e+02	2.000000e-01	-1.025830e-14	
4.000000e-01	6.000000e-01	1.176591e+00	8.170811e+01	0.000000e+00	2.561496e+05	1.013250e+05	3.000000e+02	2.000000e-01	0.000000e+00	
6.000000e-01	6.000000e-01	1.176591e+00	8.170811e+01	1.190606e-14	2.561496e+05	1.013250e+05	3.000000e+02	2.000000e-01	0.000000e+00	
8.000000e-01	6.000000e-01	1.176591e+00	8.170811e+01	1.190606e-14	2.561496e+05	1.013250e+05	3.000000e+02	2.000000e-01	0.000000e+00	
1.000000e+00	6.000000e-01	1.176591e+00	8.170811e+01	1.540784e-14	2.561496e+05	1.013250e+05	3.000000e+02	2.000000e-01	0.000000e+00	
0.000000e+00	8.000000e-01	1.176591e+00	8.170811e+01	2.311176e-14	2.561496e+05	1.013250e+05	3.000000e+02	2.000000e-01	0.000000e+00	
2.000000e-01	8.000000e-01	1.176591e+00	8.170811e+01	2.381212e-14	2.561496e+05	1.013250e+05	3.000000e+02	2.000000e-01	-5.129151e-15	
4.000000e-01	8.000000e-01	1.176591e+00	8.170811e+01	2.381212e-14	2.561496e+05	1.013250e+05	3.000000e+02	2.000000e-01	-1.025830e-14	
6.000000e-01	8.000000e-01	1.176591e+00	8.170811e+01	2.381212e-14	2.561496e+05	1.013250e+05	3.000000e+02	2.000000e-01	0.000000e+00	
8.000000e-01	8.000000e-01	1.176591e+00	8.170811e+01	2.381212e-14	2.561496e+05	1.013250e+05	3.000000e+02	2.000000e-01	0.000000e+00	
1.000000e+00	8.000000e-01	1.176591e+00	8.170811e+01	3.196214e-14	2.561496e+05	1.013250e+05	3.000000e+02	2.000000e-01	0.000000e+00	
0.000000e+00	1.000000e+00	1.176591e+00	8.170811e+01	3.571818e-14	2.561496e+05	1.013250e+05	3.000000e+02	2.000000e-01	0.000000e+00	
2.000000e-01	1.000000e+00	1.176591e+00	8.170811e+01	3.274166e-14	2.561496e+05	1.013250e+05	3.000000e+02	2.000000e-01	-5.129151e-15	
4.000000e-01	1.000000e+00	1.176591e+00	8.170811e+01	3.274166e-14	2.561496e+05	1.013250e+05	3.000000e+02	2.000000e-01	0.000000e+00	
6.000000e-01	1.000000e+00	1.176591e+00	8.170811e+01	4.911249e-14	2.561496e+05	1.013250e+05	3.000000e+02	2.000000e-01	0.000000e+00	
8.000000e-01	1.000000e+00	1.176591e+00	8.170811e+01	4.911249e-14	2.561496e+05	1.013250e+05	3.000000e+02	2.000000e-01	0.000000e+00	
1.000000e+00	1.000000e+00	1.176591e+00	8.170811e+01	4.762423e-14	2.561496e+05	1.013250e+05	3.000000e+02	2.000000e-01	0.000000e+00	
1	2	8	7
2	3	9	8
3	4	10	9
4	5	11	10
5	6	12	11
7	8	14	13
8	9	15	14
9	10	16	15
10	11	17	16
11	12	18	17
13	14	20	19
14	15	21	20
15	16	22	21
16	17	23	22
17	18	24	23
19	20	26	25
20	21	27	26
21	22	28	27
22	23	29	28
23	24	30	29
25	26	32	31
26	27	33	32
27	28	34	33
28	29	35	34
29	30	36	35
