TITLE = "SU2 Simulation"
VARIABLES = "Iteration","CLift","CDrag","CSideForce","CMx","CMy","CMz","CFx","CFy","CFz","CL/CD","Res_Flow[0]","Res_Flow[1]","Res_Flow[2]","Res_Flow[3]","Res_Flow[4]","Linear_Solver_Iterations","Time(min)"
ZONE T= "Convergence history"
           0, 0.0000000000, 0.0000000000, 0.0000000000, 0.0000000000, 0.0000000000, 0.0000000000, 0.0000000000, 0.0000000000, 0.0000000000, 0.0000000000, -15.0297687106, -4.2705589767, -12.3529959347, -12.4164644427, -2.5736048934, 5.0000000000, 0.0002581500
           1, 0.0000000000, 0.0000000000, 0.0000000000, 0.0000000000, 0.0000000000, 0.0000000000, 0.0000000000, 0.0000000000, 0.0000000000, 0.0000000000, -7.4489906780, -4.3134665694, -5.5135512966, -5.5038641999, -2.0091739633, 5.0000000000, 0.0005175000
           2, 0.0000000000, 0.0000000000, 0.0000000000, 0.0000000000, 0.0000000000, 0.0000000000, 0.0000000000, 0.0000000000, 0.0000000000, 0.0000000000, -7.2805857323, -4.3650549914, -5.1391946873, -5.1281116609, -1.8549560106, 5.0000000000, 0.0007885000
           3, 0.0000000000, 0.0000000000, 0.0000000000, 0.0000000000, 0.0000000000, 0.0000000000, 0.0000000000, 0.0000000000, 0.0000000000, 0.0000000000, -7.2678283907, -4.4099234793, -4.9555625252, -4.9434331968, -1.8532992295, 5.0000000000, 0.0010520833
           4, 0.0000000000, 0.0000000000, 0.0000000000, 0.0000000000, 0.0000000000, 0.0000000000, 0.0000000000, 0.0000000000, 0.0000000000, 0.0000000000, -7.3299258139, -4.4419947195, -4.8637523181, -4.8510585606, -1.9308473216, 5.0000000000, 0.0013189667
           5, 0.0000000000, 0.0000000000, 0.0000000000, 0.0000000000, 0.0000000000, 0.0000000000, 0.0000000000, 0.0000000000, 0.0000000000, 0.0000000000, -7.4249398992, -4.4651430362, -4.8280348605, -4.8153701603, -2.0468802161, 5.0000000000, 0.0015789167
           6, 0.0000000000, 0.0000000000, 0.0000000000, 0.0000000000, 0.0000000000, 0.0000000000, 0.0000000000, 0.0000000000, 0.0000000000, 0.0000000000, -7.5105577013, -4.4845611183, -4.8298855905, -4.8178575262, -2.1493237882, 5.0000000000, 0.0018395167
           7, 0.0000000000, 0.0000000000, 0.0000000000, 0.0000000000, 0.0000000000, 0.0000000000, 0.0000000000, 0.0000000000, 0.0000000000, 0.0000000000, -7.5666621950, -4.5018954155, -4.8571773196, -4.8462268794, -2.2057364941, 5.0000000000, 0.0021087333
           8, 0.0000000000, 0.0000000000, 0.0000000000, 0.0000000000, 0.0000000000, 0.0000000000, 0.0000000000, 0.0000000000, 0.0000000000, 0.0000000000, -7.6123282365, -4.5167408809, -4.9001010277, -4.8902717259, -2.2439939339, 5.0000000000, 0.0023776833
           9, 0.0000000000, 0.0000000000, 0.0000000000, 0.0000000000, 0.0000000000, 0.0000000000, 0.0000000000, 0.0000000000, 0.0000000000, 0.0000000000, -7.6681487095, -4.5291311380, -4.9489335899, -4.9396845891, -2.2948705928, 5.0000000000, 0.0026402833
          10, 0.0000000000, 0.0000000000, 0.0000000000, 0.0000000000, 0.0000000000, 0.0000000000, 0.0000000000, 0.0000000000, 0.0000000000, 0.0000000000, -7.7349177985, -4.5400103212, -4.9931585102, -4.9834215940, -2.3599492023, 5.0000000000, 0.0029025500
          11, 0.0000000000, 0.0000000000, 0.0000000000, 0.0000000000, 0.0000000000, 0.0000000000, 0.0000000000, 0.0000000000, 0.0000000000, 0.0000000000, -7.7999666063, -4.5503374912, -5.0233938575, -5.0121053985, -2.4232423440, 5.0000000000, 0.0031556667
          12, 0.0000000000, 0.0000000000, 0.0000000000, 0.0000000000, 0.0000000000, 0.0000000000, 0.0000000000, 0.0000000000, 0.0000000000, 0.0000000000, -7.8510394358, -4.5604492296, -5.0359541648, -5.0227996880, -2.4694092118, 5.0000000000, 0.0034110000
          13, 0.0000000000, 0.0000000000, 0.0000000000, 0.0000000000, 0.0000000000, 0.0000000000, 0.0000000000, 0.0000000000, 0.0000000000, 0.0000000000, -7.8877117953, -4.5701727308, -5.0347196126, -5.0202680001, -2.4985485016, 5.0000000000, 0.0036622167
          14, 0.0000000000, 0.0000000000, 0.0000000000, 0.0000000000, 0.0000000000, 0.0000000000, 0.0000000000, 0.0000000000, 0.0000000000, 0.0000000000, -7.9178174064, -4.5792331996, -5.0271539247, -5.0123227641, -2.5209564605, 5.0000000000, 0.0039184333
          15, 0.0000000000, 0.0000000000, 0.0000000000, 0.0000000000, 0.0000000000, 0.0000000000, 0.0000000000, 0.0000000000, 0.0000000000, 0.0000000000, -7.9475522464, -4.5874952915, -5.0194819842, -5.0050528937, -2.5441908452, 5.0000000000, 0.0041668167
          16, 0.0000000000, 0.0000000000, 0.0000000000, 0.0000000000, 0.0000000000, 0.0000000000, 0.0000000000, 0.0000000000, 0.0000000000, 0.0000000000, -7.9787699943, -4.5949637291, -5.0150440816, -5.0015112337, -2.5700672190, 5.0000000000, 0.0044247833
          17, 0.0000000000, 0.0000000000, 0.0000000000, 0.0000000000, 0.0000000000, 0.0000000000, 0.0000000000, 0.0000000000, 0.0000000000, 0.0000000000, -8.0110310274, -4.6017006513, -5.0148057606, -5.0024259227, -2.5971628803, 5.0000000000, 0.0046835333
          18, 0.0000000000, 0.0000000000, 0.0000000000, 0.0000000000, 0.0000000000, 0.0000000000, 0.0000000000, 0.0000000000, 0.0000000000, 0.0000000000, -8.0431894017, -4.6077836077, -5.0182813846, -5.0071915969, -2.6227784925, 5.0000000000, 0.0049489500
          19, 0.0000000000, 0.0000000000, 0.0000000000, 0.0000000000, 0.0000000000, 0.0000000000, 0.0000000000, 0.0000000000, 0.0000000000, 0.0000000000, -8.0735684787, -4.6133072571, -5.0242586216, -5.0145883232, -2.6438515380, 5.0000000000, 0.0052116000
          20, 0.0000000000, 0.0000000000, 0.0000000000, 0.0000000000, 0.0000000000, 0.0000000000, 0.0000000000, 0.0000000000, 0.0000000000, 0.0000000000, -8.0999953637, -4.6183848982, -5.0313096252, -5.0232395340, -2.6580015660, 5.0000000000, 0.0054793333
          21, 0.0000000000, 0.0000000000, 0.0000000000, 0.0000000000, 0.0000000000, 0.0000000000, 0.0000000000, 0.0000000000, 0.0000000000, 0.0000000000, -8.1206475345, -4.6231347167, -5.0381648846, -5.0319131814, -2.6647988075, 5.0000000000, 0.0057334333
          22, 0.0000000000, 0.0000000000, 0.0000000000, 0.0000000000, 0.0000000000, 0.0000000000, 0.0000000000, 0.0000000000, 0.0000000000, 0.0000000000, -8.1352167373, -4.6276666723, -5.0439663119, -5.0397245526, -2.6660846527, 5.0000000000, 0.0059930667
          23, 0.0000000000, 0.0000000000, 0.0000000000, 0.0000000000, 0.0000000000, 0.0000000000, 0.0000000000, 0.0000000000, 0.0000000000, 0.0000000000, -8.1451546046, -4.6320830667, -5.0483711515, -5.0462408423, -2.6648614712, 5.0000000000, 0.0062530000
          24, 0.0000000000, 0.0000000000, 0.0000000000, 0.0000000000, 0.0000000000, 0.0000000000, 0.0000000000, 0.0000000000, 0.0000000000, 0.0000000000, -8.1527208216, -4.6364867986, -5.0514949872, -5.0514653729, -2.6637986502, 5.0000000000, 0.0065116833
          25, 0.0000000000, 0.0000000000, 0.0000000000, 0.0000000000, 0.0000000000, 0.0000000000, 0.0000000000, 0.0000000000, 0.0000000000, 0.0000000000, -8.1597936937, -4.6409835998, -5.0537381737, -5.0557085417, -2.6644185355, 5.0000000000, 0.0067718833
          26, 0.0000000000, 0.0000000000, 0.0000000000, 0.0000000000, 0.0000000000, 0.0000000000, 0.0000000000, 0.0000000000, 0.0000000000, 0.0000000000, -8.1672911547, -4.6456729378, -5.0555809617, -5.0594025182, -2.6670609940, 5.0000000000, 0.0070394333
          27, 0.0000000000, 0.0000000000, 0.0000000000, 0.0000000000, 0.0000000000, 0.0000000000, 0.0000000000, 0.0000000000, 0.0000000000, 0.0000000000, -8.1752520316, -4.6506339894, -5.0574254808, -5.0629371831, -2.6712491109, 5.0000000000, 0.0072987500
          28, 0.0000000000, 0.0000000000, 0.0000000000, 0.0000000000, 0.0000000000, 0.0000000000, 0.0000000000, 0.0000000000, 0.0000000000, 0.0000000000, -8.1832355295, -4.6559166173, -5.0595214038, -5.0665696933, -2.6761446894, 5.0000000000, 0.0075538667
          29, 0.0000000000, 0.0000000000, 0.0000000000, 0.0000000000, 0.0000000000, 0.0000000000, 0.0000000000, 0.0000000000, 0.0000000000, 0.0000000000, -8.1907296527, -4.6615423316, -5.0619690940, -5.0704143443, -2.6809328623, 5.0000000000, 0.0078129000
          30, 0.0000000000, 0.0000000000, 0.0000000000, 0.0000000000, 0.0000000000, 0.0000000000, 0.0000000000, 0.0000000000, 0.0000000000, 0.0000000000, -8.1974040798, -4.6675133013, -5.0647692219, -5.0744855792, -2.6850605380, 5.0000000000, 0.0080786833
          31, 0.0000000000, 0.0000000000, 0.0000000000, 0.0000000000, 0.0000000000, 0.0000000000, 0.0000000000, 0.0000000000, 0.0000000000, 0.0000000000, -8.2031766440, -4.6738240026, -5.0678834601, -5.0787566327, -2.6883115889, 5.0000000000, 0.0083471500
          32, 0.0000000000, 0.0000000000, 0.0000000000, 0.0000000000, 0.0000000000, 0.0000000000, 0.0000000000, 0.0000000000, 0.0000000000, 0.0000000000, -8.2081564844, -4.6804707963, -5.0712803836, -5.0832050284, -2.6907577894, 5.0000000000, 0.0086140167
          33, 0.0000000000, 0.0000000000, 0.0000000000, 0.0000000000, 0.0000000000, 0.0000000000, 0.0000000000, 0.0000000000, 0.0000000000, 0.0000000000, -8.2125538708, -4.6874574819, -5.0749562030, -5.0878331112, -2.6926547089, 5.0000000000, 0.0088741500
          34, 0.0000000000, 0.0000000000, 0.0000000000, 0.0000000000, 0.0000000000, 0.0000000000, 0.0000000000, 0.0000000000, 0.0000000000, 0.0000000000, -8.2166133371, -4.6947971412, -5.0789336769, -5.0926668210, -2.6943399995, 5.0000000000, 0.0091322167
          35, 0.0000000000, 0.0000000000, 0.0000000000, 0.0000000000, 0.0000000000, 0.0000000000, 0.0000000000, 0.0000000000, 0.0000000000, 0.0000000000, -8.2205798848, -4.7025114892, -5.0832495876, -5.0977433879, -2.6961591333, 5.0000000000, 0.0093903167
          36, 0.0000000000, 0.0000000000, 0.0000000000, 0.0000000000, 0.0000000000, 0.0000000000, 0.0000000000, 0.0000000000, 0.0000000000, 0.0000000000, -8.2246820461, -4.7106288242, -5.0879409405, -5.1030982370, -2.6984176668, 5.0000000000, 0.0096598833
          37, 0.0000000000, 0.0000000000, 0.0000000000, 0.0000000000, 0.0000000000, 0.0000000000, 0.0000000000, 0.0000000000, 0.0000000000, 0.0000000000, -8.2291185014, -4.7191812192, -5.0930358217, -5.1087569171, -2.7013526853, 5.0000000000, 0.0099346167
          38, 0.0000000000, 0.0000000000, 0.0000000000, 0.0000000000, 0.0000000000, 0.0000000000, 0.0000000000, 0.0000000000, 0.0000000000, 0.0000000000, -8.2340449891, -4.7282013861, -5.0985502572, -5.1147331403, -2.7051181047, 5.0000000000, 0.0102033500
          39, 0.0000000000, 0.0000000000, 0.0000000000, 0.0000000000, 0.0000000000, 0.0000000000, 0.0000000000, 0.0000000000, 0.0000000000, 0.0000000000, -8.2395668489, -4.7377196062, -5.1044896903, -5.1210313142, -2.7097831197, 5.0000000000, 0.0104662833
          40, 0.0000000000, 0.0000000000, 0.0000000000, 0.0000000000, 0.0000000000, 0.0000000000, 0.0000000000, 0.0000000000, 0.0000000000, 0.0000000000, -8.2457408729, -4.7477611707, -5.1108529376, -5.1276512787, -2.7153428034, 5.0000000000, 0.0107311500
          41, 0.0000000000, 0.0000000000, 0.0000000000, 0.0000000000, 0.0000000000, 0.0000000000, 0.0000000000, 0.0000000000, 0.0000000000, 0.0000000000, -8.2525864014, -4.7583447249, -5.1176367373, -5.1345933176, -2.7217385259, 5.0000000000, 0.0109904667
          42, 0.0000000000, 0.0000000000, 0.0000000000, 0.0000000000, 0.0000000000, 0.0000000000, 0.0000000000, 0.0000000000, 0.0000000000, 0.0000000000, -8.2601009475, -4.7694817328, -5.1248397412, -5.1418621870, -2.7288833259, 5.0000000000, 0.0112400500
          43, 0.0000000000, 0.0000000000, 0.0000000000, 0.0000000000, 0.0000000000, 0.0000000000, 0.0000000000, 0.0000000000, 0.0000000000, 0.0000000000, -8.2682746927, -4.7811770646, -5.1324652491, -5.1494695082, -2.7366866435, 5.0000000000, 0.0114849500
          44, 0.0000000000, 0.0000000000, 0.0000000000, 0.0000000000, 0.0000000000, 0.0000000000, 0.0000000000, 0.0000000000, 0.0000000000, 0.0000000000, -8.2770999409, -4.7934304639, -5.1405223424, -5.1574342845, -2.7450735804, 5.0000000000, 0.0117302667
          45, 0.0000000000, 0.0000000000, 0.0000000000, 0.0000000000, 0.0000000000, 0.0000000000, 0.0000000000, 0.0000000000, 0.0000000000, 0.0000000000, -8.2865749318, -4.8062385545, -5.1490255431, -5.1657816898, -2.7539963251, 5.0000000000, 0.0119990667
          46, 0.0000000000, 0.0000000000, 0.0000000000, 0.0000000000, 0.0000000000, 0.0000000000, 0.0000000000, 0.0000000000, 0.0000000000, 0.0000000000, -8.2967032941, -4.8195969449, -5.1579932078, -5.1745405779, -2.7634372877, 5.0000000000, 0.0122708500
          47, 0.0000000000, 0.0000000000, 0.0000000000, 0.0000000000, 0.0000000000, 0.0000000000, 0.0000000000, 0.0000000000, 0.0000000000, 0.0000000000, -8.3074923916, -4.8335020747, -5.1674452411, -5.1837403731, -2.7734061073, 5.0000000000, 0.0125323500
          48, 0.0000000000, 0.0000000000, 0.0000000000, 0.0000000000, 0.0000000000, 0.0000000000, 0.0000000000, 0.0000000000, 0.0000000000, 0.0000000000, -8.3189517956, -4.8479525287, -5.1774006681, -5.1934080903, -2.7839325700, 5.0000000000, 0.0127853667
          49, 0.0000000000, 0.0000000000, 0.0000000000, 0.0000000000, 0.0000000000, 0.0000000000, 0.0000000000, 0.0000000000, 0.0000000000, 0.0000000000, -8.3310930502, -4.8629497052, -5.1878755815, -5.2035660233, -2.7950581389, 5.0000000000, 0.0130427167
          50, 0.0000000000, 0.0000000000, 0.0000000000, 0.0000000000, 0.0000000000, 0.0000000000, 0.0000000000, 0.0000000000, 0.0000000000, 0.0000000000, -8.3439299456, -4.8784978579, -5.1988818598, -5.2142304819, -2.8068277177, 5.0000000000, 0.0133157667
          51, 0.0000000000, 0.0000000000, 0.0000000000, 0.0000000000, 0.0000000000, 0.0000000000, 0.0000000000, 0.0000000000, 0.0000000000, 0.0000000000, -8.3574783883, -4.8946036366, -5.2104267417, -5.2254116474, -2.8192827255, 5.0000000000, 0.0135615833
          52, 0.0000000000, 0.0000000000, 0.0000000000, 0.0000000000, 0.0000000000, 0.0000000000, 0.0000000000, 0.0000000000, 0.0000000000, 0.0000000000, -8.3717551929, -4.9112753306, -5.2225132197, -5.2371143976, -2.8324561837, 5.0000000000, 0.0138059000
          53, 0.0000000000, 0.0000000000, 0.0000000000, 0.0000000000, 0.0000000000, 0.0000000000, 0.0000000000, 0.0000000000, 0.0000000000, 0.0000000000, -8.3867762578, -4.9285219888, -5.2351410371, -5.2493397423, -2.8463701964, 5.0000000000, 0.0140537667
          54, 0.0000000000, 0.0000000000, 0.0000000000, 0.0000000000, 0.0000000000, 0.0000000000, 0.0000000000, 0.0000000000, 0.0000000000, 0.0000000000, -8.4025541371, -4.9463526489, -5.2483079940, -5.2620865284, -2.8610357210, 5.0000000000, 0.0143229000
          55, 0.0000000000, 0.0000000000, 0.0000000000, 0.0000000000, 0.0000000000, 0.0000000000, 0.0000000000, 0.0000000000, 0.0000000000, 0.0000000000, -8.4190959908, -4.9647757238, -5.2620112592, -5.2753530590, -2.8764541957, 5.0000000000, 0.0145757500
          56, 0.0000000000, 0.0000000000, 0.0000000000, 0.0000000000, 0.0000000000, 0.0000000000, 0.0000000000, 0.0000000000, 0.0000000000, 0.0000000000, -8.4364022950, -4.9837986816, -5.2762485002, -5.2891383506, -2.8926205836, 5.0000000000, 0.0147682500
          57, 0.0000000000, 0.0000000000, 0.0000000000, 0.0000000000, 0.0000000000, 0.0000000000, 0.0000000000, 0.0000000000, 0.0000000000, 0.0000000000, -8.4544662544, -5.0034279671, -5.2910185944, -5.3034429107, -2.9095267281, 5.0000000000, 0.0149806833
          58, 0.0000000000, 0.0000000000, 0.0000000000, 0.0000000000, 0.0000000000, 0.0000000000, 0.0000000000, 0.0000000000, 0.0000000000, 0.0000000000, -8.4732739489, -5.0236691487, -5.3063219797, -5.3182690297, -2.9271644014, 5.0000000000, 0.0152391833
          59, 0.0000000000, 0.0000000000, 0.0000000000, 0.0000000000, 0.0000000000, 0.0000000000, 0.0000000000, 0.0000000000, 0.0000000000, 0.0000000000, -8.4928048124, -5.0445272169, -5.3221605477, -5.3336206097, -2.9455274882, 5.0000000000, 0.0154944333
          60, 0.0000000000, 0.0000000000, 0.0000000000, 0.0000000000, 0.0000000000, 0.0000000000, 0.0000000000, 0.0000000000, 0.0000000000, 0.0000000000, -8.5130324320, -5.0660069263, -5.3385372867, -5.3495026758, -2.9646131150, 5.0000000000, 0.0157545667
          61, 0.0000000000, 0.0000000000, 0.0000000000, 0.0000000000, 0.0000000000, 0.0000000000, 0.0000000000, 0.0000000000, 0.0000000000, 0.0000000000, -8.5339251992, -5.0881131444, -5.3554557401, -5.3659207357, -2.9844217240, 5.0000000000, 0.0160127500
          62, 0.0000000000, 0.0000000000, 0.0000000000, 0.0000000000, 0.0000000000, 0.0000000000, 0.0000000000, 0.0000000000, 0.0000000000, 0.0000000000, -8.5554468227, -5.1108511383, -5.3729193834, -5.3828801051, -3.0049564163, 5.0000000000, 0.0162681000
          63, 0.0000000000, 0.0000000000, 0.0000000000, 0.0000000000, 0.0000000000, 0.0000000000, 0.0000000000, 0.0000000000, 0.0000000000, 0.0000000000, -8.5775568171, -5.1342267264, -5.3909311193, -5.4003853344, -3.0262219365, 5.0000000000, 0.0165246500
          64, 0.0000000000, 0.0000000000, 0.0000000000, 0.0000000000, 0.0000000000, 0.0000000000, 0.0000000000, 0.0000000000, 0.0000000000, 0.0000000000, -8.6002105405, -5.1582463606, -5.4094928689, -5.4184397383, -3.0482236044, 5.0000000000, 0.0167822333
          65, 0.0000000000, 0.0000000000, 0.0000000000, 0.0000000000, 0.0000000000, 0.0000000000, 0.0000000000, 0.0000000000, 0.0000000000, 0.0000000000, -8.6233590558, -5.1829170799, -5.4286053215, -5.4370451760, -3.0709663505, 5.0000000000, 0.0170038833
          66, 0.0000000000, 0.0000000000, 0.0000000000, 0.0000000000, 0.0000000000, 0.0000000000, 0.0000000000, 0.0000000000, 0.0000000000, 0.0000000000, -8.6469488627, -5.2082463647, -5.4482678389, -5.4562018938, -3.0944542567, 5.0000000000, 0.0172376833
          67, 0.0000000000, 0.0000000000, 0.0000000000, 0.0000000000, 0.0000000000, 0.0000000000, 0.0000000000, 0.0000000000, 0.0000000000, 0.0000000000, -8.6709213012, -5.2342419471, -5.4684784842, -5.4759085845, -3.1186901300, 5.0000000000, 0.0174855500
          68, 0.0000000000, 0.0000000000, 0.0000000000, 0.0000000000, 0.0000000000, 0.0000000000, 0.0000000000, 0.0000000000, 0.0000000000, 0.0000000000, -8.6952124779, -5.2609115257, -5.4892340822, -5.4961624225, -3.1436757586, 5.0000000000, 0.0177486167
          69, 0.0000000000, 0.0000000000, 0.0000000000, 0.0000000000, 0.0000000000, 0.0000000000, 0.0000000000, 0.0000000000, 0.0000000000, 0.0000000000, -8.7197522536, -5.2882624399, -5.5105303173, -5.5169591537, -3.1694115298, 5.0000000000, 0.0179733500
          70, 0.0000000000, 0.0000000000, 0.0000000000, 0.0000000000, 0.0000000000, 0.0000000000, 0.0000000000, 0.0000000000, 0.0000000000, 0.0000000000, -8.7444646866, -5.3163012904, -5.5323617630, -5.5382931180, -3.1958966903, 5.0000000000, 0.0182115167
          71, 0.0000000000, 0.0000000000, 0.0000000000, 0.0000000000, 0.0000000000, 0.0000000000, 0.0000000000, 0.0000000000, 0.0000000000, 0.0000000000, -8.7692686319, -5.3450334910, -5.5547218500, -5.5601572156, -3.2231292900, 5.0000000000, 0.0184758167
          72, 0.0000000000, 0.0000000000, 0.0000000000, 0.0000000000, 0.0000000000, 0.0000000000, 0.0000000000, 0.0000000000, 0.0000000000, 0.0000000000, -8.7940781500, -5.3744627205, -5.5776027591, -5.5825427957, -3.2511054711, 5.0000000000, 0.0187239333
          73, 0.0000000000, 0.0000000000, 0.0000000000, 0.0000000000, 0.0000000000, 0.0000000000, 0.0000000000, 0.0000000000, 0.0000000000, 0.0000000000, -8.8188046590, -5.4045902734, -5.6009952623, -5.6054394127, -3.2798191054, 5.0000000000, 0.0189221000
          74, 0.0000000000, 0.0000000000, 0.0000000000, 0.0000000000, 0.0000000000, 0.0000000000, 0.0000000000, 0.0000000000, 0.0000000000, 0.0000000000, -8.8433591440, -5.4354142491, -5.6248883918, -5.6288344841, -3.3092608251, 5.0000000000, 0.0191555167
          75, 0.0000000000, 0.0000000000, 0.0000000000, 0.0000000000, 0.0000000000, 0.0000000000, 0.0000000000, 0.0000000000, 0.0000000000, 0.0000000000, -8.8676550541, -5.4669285435, -5.6492691516, -5.6527129717, -3.3394169514, 5.0000000000, 0.0193854500
          76, 0.0000000000, 0.0000000000, 0.0000000000, 0.0000000000, 0.0000000000, 0.0000000000, 0.0000000000, 0.0000000000, 0.0000000000, 0.0000000000, -8.8916123046, -5.4991216037, -5.6741221246, -5.6770568159, -3.3702686387, 5.0000000000, 0.0196389167
          77, 0.0000000000, 0.0000000000, 0.0000000000, 0.0000000000, 0.0000000000, 0.0000000000, 0.0000000000, 0.0000000000, 0.0000000000, 0.0000000000, -8.9151606623, -5.5319748773, -5.6994290304, -5.7018444579, -3.4017904817, 5.0000000000, 0.0199023833
          78, 0.0000000000, 0.0000000000, 0.0000000000, 0.0000000000, 0.0000000000, 0.0000000000, 0.0000000000, 0.0000000000, 0.0000000000, 0.0000000000, -8.9382438819, -5.5654609165, -5.7251682444, -5.7270502041, -3.4339494541, 5.0000000000, 0.0201075333
          79, 0.0000000000, 0.0000000000, 0.0000000000, 0.0000000000, 0.0000000000, 0.0000000000, 0.0000000000, 0.0000000000, 0.0000000000, 0.0000000000, -8.9608223867, -5.5995409931, -5.7513143691, -5.7526435860, -3.4667031857, 5.0000000000, 0.0203170333
          80, 0.0000000000, 0.0000000000, 0.0000000000, 0.0000000000, 0.0000000000, 0.0000000000, 0.0000000000, 0.0000000000, 0.0000000000, 0.0000000000, -8.9828767464, -5.6341623399, -5.7778376153, -5.7785887330, -3.4999990915, 5.0000000000, 0.0205582667
          81, 0.0000000000, 0.0000000000, 0.0000000000, 0.0000000000, 0.0000000000, 0.0000000000, 0.0000000000, 0.0000000000, 0.0000000000, 0.0000000000, -9.0044080085, -5.6692547570, -5.8047034202, -5.8048436017, -3.5337718197, 5.0000000000, 0.0207514000
          82, 0.0000000000, 0.0000000000, 0.0000000000, 0.0000000000, 0.0000000000, 0.0000000000, 0.0000000000, 0.0000000000, 0.0000000000, 0.0000000000, -9.0254382376, -5.7047268045, -5.8318717562, -5.8313593917, -3.5679416636, 5.0000000000, 0.0210177833
          83, 0.0000000000, 0.0000000000, 0.0000000000, 0.0000000000, 0.0000000000, 0.0000000000, 0.0000000000, 0.0000000000, 0.0000000000, 0.0000000000, -9.0460090205, -5.7404615545, -5.8592967768, -5.8580798606, -3.6024118771, 5.0000000000, 0.0212666500
          84, 0.0000000000, 0.0000000000, 0.0000000000, 0.0000000000, 0.0000000000, 0.0000000000, 0.0000000000, 0.0000000000, 0.0000000000, 0.0000000000, -9.0661792722, -5.7763122090, -5.8869263030, -5.8849408902, -3.6370664143, 5.0000000000, 0.0215174500
          85, 0.0000000000, 0.0000000000, 0.0000000000, 0.0000000000, 0.0000000000, 0.0000000000, 0.0000000000, 0.0000000000, 0.0000000000, 0.0000000000, -9.0860217454, -5.8120980354, -5.9147015529, -5.9118701512, -3.6717672173, 5.0000000000, 0.0217844500
          86, 0.0000000000, 0.0000000000, 0.0000000000, 0.0000000000, 0.0000000000, 0.0000000000, 0.0000000000, 0.0000000000, 0.0000000000, 0.0000000000, -9.1056191099, -5.8476014104, -5.9425569741, -5.9387870320, -3.7063524929, 5.0000000000, 0.0219926500
          87, 0.0000000000, 0.0000000000, 0.0000000000, 0.0000000000, 0.0000000000, 0.0000000000, 0.0000000000, 0.0000000000, 0.0000000000, 0.0000000000, -9.1250607161, -5.8825669132, -5.9704202638, -5.9656030868, -3.7406367043, 5.0000000000, 0.0222248167
          88, 0.0000000000, 0.0000000000, 0.0000000000, 0.0000000000, 0.0000000000, 0.0000000000, 0.0000000000, 0.0000000000, 0.0000000000, 0.0000000000, -9.1444374821, -5.9167041185, -5.9982128391, -5.9922227797, -3.7744104773, 5.0000000000, 0.0224921833
          89, 0.0000000000, 0.0000000000, 0.0000000000, 0.0000000000, 0.0000000000, 0.0000000000, 0.0000000000, 0.0000000000, 0.0000000000, 0.0000000000, -9.1638401743, -5.9496953471, -6.0258505607, -6.0185448842, -3.8074459262, 5.0000000000, 0.0227415333
          90, 0.0000000000, 0.0000000000, 0.0000000000, 0.0000000000, 0.0000000000, 0.0000000000, 0.0000000000, 0.0000000000, 0.0000000000, 0.0000000000, -9.1833544928, -5.9812097400, -6.0532448255, -6.0444644938, -3.8395030979, 5.0000000000, 0.0229885667
          91, 0.0000000000, 0.0000000000, 0.0000000000, 0.0000000000, 0.0000000000, 0.0000000000, 0.0000000000, 0.0000000000, 0.0000000000, 0.0000000000, -9.2030596955, -6.0109238366, -6.0803043199, -6.0698757450, -3.8703402168, 5.0000000000, 0.0232258167
          92, 0.0000000000, 0.0000000000, 0.0000000000, 0.0000000000, 0.0000000000, 0.0000000000, 0.0000000000, 0.0000000000, 0.0000000000, 0.0000000000, -9.2230248897, -6.0385478107, -6.1069371119, -6.0946751320, -3.8997275473, 5.0000000000, 0.0234521000
          93, 0.0000000000, 0.0000000000, 0.0000000000, 0.0000000000, 0.0000000000, 0.0000000000, 0.0000000000, 0.0000000000, 0.0000000000, 0.0000000000, -9.2433095180, -6.0638533814, -6.1330532365, -6.1187652709, -3.9274644923, 5.0000000000, 0.0236425167
          94, 0.0000000000, 0.0000000000, 0.0000000000, 0.0000000000, 0.0000000000, 0.0000000000, 0.0000000000, 0.0000000000, 0.0000000000, 0.0000000000, -9.2639592115, -6.0866994620, -6.1585677199, -6.1420590281, -3.9533933430, 5.0000000000, 0.0238793167
          95, 0.0000000000, 0.0000000000, 0.0000000000, 0.0000000000, 0.0000000000, 0.0000000000, 0.0000000000, 0.0000000000, 0.0000000000, 0.0000000000, -9.2850048126, -6.1070489886, -6.1834036609, -6.1644836129, -3.9774132022, 5.0000000000, 0.0240353833
          96, 0.0000000000, 0.0000000000, 0.0000000000, 0.0000000000, 0.0000000000, 0.0000000000, 0.0000000000, 0.0000000000, 0.0000000000, 0.0000000000, -9.3064610618, -6.1249737209, -6.2074954944, -6.1859842739, -3.9994890435, 5.0000000000, 0.0242482333
          97, 0.0000000000, 0.0000000000, 0.0000000000, 0.0000000000, 0.0000000000, 0.0000000000, 0.0000000000, 0.0000000000, 0.0000000000, 0.0000000000, -9.3283245390, -6.1406454238, -6.2307919165, -6.2065272813, -4.0196536924, 5.0000000000, 0.0244683000
          98, 0.0000000000, 0.0000000000, 0.0000000000, 0.0000000000, 0.0000000000, 0.0000000000, 0.0000000000, 0.0000000000, 0.0000000000, 0.0000000000, -9.3505716374, -6.1543155342, -6.2532583930, -6.2261016580, -4.0380026309, 5.0000000000, 0.0247087500
          99, 0.0000000000, 0.0000000000, 0.0000000000, 0.0000000000, 0.0000000000, 0.0000000000, 0.0000000000, 0.0000000000, 0.0000000000, 0.0000000000, -9.3731566115, -6.1662884574, -6.2748788366, -6.2447201215, -4.0546847223, 5.0000000000, 0.0249357000
         100, 0.0000000000, 0.0000000000, 0.0000000000, 0.0000000000, 0.0000000000, 0.0000000000, 0.0000000000, 0.0000000000, 0.0000000000, 0.0000000000, -9.3960093171, -6.1768934700, -6.2956562835, -6.2624178683, -4.0698866283, 5.0000000000, 0.0251662333
         101, 0.0000000000, 0.0000000000, 0.0000000000, 0.0000000000, 0.0000000000, 0.0000000000, 0.0000000000, 0.0000000000, 0.0000000000, 0.0000000000, -9.4190341968, -6.1864602079, -6.3156125934, -6.2792508215, -4.0838206036, 5.0000000000, 0.0253393333
         102, 0.0000000000, 0.0000000000, 0.0000000000, 0.0000000000, 0.0000000000, 0.0000000000, 0.0000000000, 0.0000000000, 0.0000000000, 0.0000000000, -9.4421085915, -6.1953000911, -6.3347874528, -6.2952924057, -4.0967063340, 5.0000000000, 0.0255699667
         103, 0.0000000000, 0.0000000000, 0.0000000000, 0.0000000000, 0.0000000000, 0.0000000000, 0.0000000000, 0.0000000000, 0.0000000000, 0.0000000000, -9.4650823862, -6.2036941458, -6.3532358870, -6.3106297378, -4.1087621091, 5.0000000000, 0.0258221167
         104, 0.0000000000, 0.0000000000, 0.0000000000, 0.0000000000, 0.0000000000, 0.0000000000, 0.0000000000, 0.0000000000, 0.0000000000, 0.0000000000, -9.4877804543, -6.2118871959, -6.3710256481, -6.3253594049, -4.1201941396, 5.0000000000, 0.0260220833
         105, 0.0000000000, 0.0000000000, 0.0000000000, 0.0000000000, 0.0000000000, 0.0000000000, 0.0000000000, 0.0000000000, 0.0000000000, 0.0000000000, -9.5100059875, -6.2200861709, -6.3882340009, -6.3395834682, -4.1311913499, 5.0000000000, 0.0262288833
         106, 0.0000000000, 0.0000000000, 0.0000000000, 0.0000000000, 0.0000000000, 0.0000000000, 0.0000000000, 0.0000000000, 0.0000000000, 0.0000000000, -9.5315462121, -6.2284619391, -6.4049443921, -6.3534057038, -4.1419218261, 5.0000000000, 0.0264548333
         107, 0.0000000000, 0.0000000000, 0.0000000000, 0.0000000000, 0.0000000000, 0.0000000000, 0.0000000000, 0.0000000000, 0.0000000000, 0.0000000000, -9.5521824177, -6.2371527246, -6.4212433104, -6.3669282086, -4.1525316618, 5.0000000000, 0.0266339667
         108, 0.0000000000, 0.0000000000, 0.0000000000, 0.0000000000, 0.0000000000, 0.0000000000, 0.0000000000, 0.0000000000, 0.0000000000, 0.0000000000, -9.5717038414, -6.2462682361, -6.4372174400, -6.3802489114, -4.1631468157, 5.0000000000, 0.0268600667
         109, 0.0000000000, 0.0000000000, 0.0000000000, 0.0000000000, 0.0000000000, 0.0000000000, 0.0000000000, 0.0000000000, 0.0000000000, 0.0000000000, -9.5899216138, -6.2558941294, -6.4529513545, -6.3934597648, -4.1738728726, 5.0000000000, 0.0270373167
         110, 0.0000000000, 0.0000000000, 0.0000000000, 0.0000000000, 0.0000000000, 0.0000000000, 0.0000000000, 0.0000000000, 0.0000000000, 0.0000000000, -9.6066817628, -6.2660962094, -6.4685253758, -6.4066452347, -4.1847978549, 5.0000000000, 0.0272381000
         111, 0.0000000000, 0.0000000000, 0.0000000000, 0.0000000000, 0.0000000000, 0.0000000000, 0.0000000000, 0.0000000000, 0.0000000000, 0.0000000000, -9.6218849858, -6.2769241379, -6.4840144494, -6.4198817218, -4.1959960293, 5.0000000000, 0.0274547833
         112, 0.0000000000, 0.0000000000, 0.0000000000, 0.0000000000, 0.0000000000, 0.0000000000, 0.0000000000, 0.0000000000, 0.0000000000, 0.0000000000, -9.6354901569, -6.2884145291, -6.4994871857, -6.4332373673, -4.2075270507, 5.0000000000, 0.0276802667
         113, 0.0000000000, 0.0000000000, 0.0000000000, 0.0000000000, 0.0000000000, 0.0000000000, 0.0000000000, 0.0000000000, 0.0000000000, 0.0000000000, -9.6475235501, -6.3005938730, -6.5150052584, -6.4467717964, -4.2194418491, 5.0000000000, 0.0278918000
         114, 0.0000000000, 0.0000000000, 0.0000000000, 0.0000000000, 0.0000000000, 0.0000000000, 0.0000000000, 0.0000000000, 0.0000000000, 0.0000000000, -9.6580751860, -6.3134804951, -6.5306232665, -6.4605370181, -4.2317812653, 5.0000000000, 0.0281154500
         115, 0.0000000000, 0.0000000000, 0.0000000000, 0.0000000000, 0.0000000000, 0.0000000000, 0.0000000000, 0.0000000000, 0.0000000000, 0.0000000000, -9.6672892103, -6.3270865196, -6.5463888430, -6.4745771869, -4.2445808954, 5.0000000000, 0.0282821500