TITLE = "SU2 Simulation"
VARIABLES = "Iteration","CLift","CDrag","CSideForce","CMx","CMy","CMz","CFx","CFy","CFz","CL/CD","Res_Flow[0]","Res_Flow[1]","Res_Flow[2]","Res_Flow[3]","Res_Flow[4]","Linear_Solver_Iterations","Time(min)"
ZONE T= "Convergence history"
<<<<<<< HEAD
           0, 0.0000000000, 0.0000000000, 0.0000000000, 0.0000000000, 0.0000000000, 0.0000000000, 0.0000000000, 0.0000000000, 0.0000000000, 0.0000000000, -15.0297687106, -0.5227407987, -3.5270698601, -3.5427601165, 1.1742132845, 3.0000000000, 0.0002058333
           1, 0.0000000000, 0.0000000000, 0.0000000000, 0.0000000000, 0.0000000000, 0.0000000000, 0.0000000000, 0.0000000000, 0.0000000000, 0.0000000000, -4.4001251510, -0.5257009592, -3.2523225539, -3.2499529615, 1.2657533783, 3.0000000000, 0.0004175500
           2, 0.0000000000, 0.0000000000, 0.0000000000, 0.0000000000, 0.0000000000, 0.0000000000, 0.0000000000, 0.0000000000, 0.0000000000, 0.0000000000, -4.1046978187, -0.5293098329, -2.8324315510, -2.8369230466, 1.4170602277, 3.0000000000, 0.0006235333
           3, 0.0000000000, 0.0000000000, 0.0000000000, 0.0000000000, 0.0000000000, 0.0000000000, 0.0000000000, 0.0000000000, 0.0000000000, 0.0000000000, -3.9350834234, -0.5335550488, -2.5413309669, -2.5483202521, 1.5442661493, 3.0000000000, 0.0008440000
           4, 0.0000000000, 0.0000000000, 0.0000000000, 0.0000000000, 0.0000000000, 0.0000000000, 0.0000000000, 0.0000000000, 0.0000000000, 0.0000000000, -3.8174988221, -0.5384168144, -2.3262383215, -2.3340481680, 1.6442198612, 3.0000000000, 0.0010681667
           5, 0.0000000000, 0.0000000000, 0.0000000000, 0.0000000000, 0.0000000000, 0.0000000000, 0.0000000000, 0.0000000000, 0.0000000000, 0.0000000000, -3.7288239691, -0.5438679603, -2.1568993677, -2.1649172602, 1.7237441216, 3.0000000000, 0.0012698333
           6, 0.0000000000, 0.0000000000, 0.0000000000, 0.0000000000, 0.0000000000, 0.0000000000, 0.0000000000, 0.0000000000, 0.0000000000, 0.0000000000, -3.6587633493, -0.5498739287, -2.0179399695, -2.0258961111, 1.7882603180, 3.0000000000, 0.0014694000
           7, 0.0000000000, 0.0000000000, 0.0000000000, 0.0000000000, 0.0000000000, 0.0000000000, 0.0000000000, 0.0000000000, 0.0000000000, 0.0000000000, -3.6018277764, -0.5563927385, -1.9006566297, -1.9084141491, 1.8414256954, 3.0000000000, 0.0016724667
           8, 0.0000000000, 0.0000000000, 0.0000000000, 0.0000000000, 0.0000000000, 0.0000000000, 0.0000000000, 0.0000000000, 0.0000000000, 0.0000000000, -3.5547434227, -0.5633749711, -1.7996641158, -1.8071458430, 1.8857060556, 3.0000000000, 0.0019024167
           9, 0.0000000000, 0.0000000000, 0.0000000000, 0.0000000000, 0.0000000000, 0.0000000000, 0.0000000000, 0.0000000000, 0.0000000000, 0.0000000000, -3.5154012795, -0.5707638247, -1.7114009481, -1.7185595819, 1.9228093238, 3.0000000000, 0.0021342333
          10, 0.0000000000, 0.0000000000, 0.0000000000, 0.0000000000, 0.0000000000, 0.0000000000, 0.0000000000, 0.0000000000, 0.0000000000, 0.0000000000, -3.4823639259, -0.5784952968, -1.6333892354, -1.6401936900, 1.9539546854, 3.0000000000, 0.0023526500
          11, 0.0000000000, 0.0000000000, 0.0000000000, 0.0000000000, 0.0000000000, 0.0000000000, 0.0000000000, 0.0000000000, 0.0000000000, 0.0000000000, -3.4546085826, -0.5864985599, -1.5638351589, -1.5702637427, 1.9800368983, 3.0000000000, 0.0025775167
          12, 0.0000000000, 0.0000000000, 0.0000000000, 0.0000000000, 0.0000000000, 0.0000000000, 0.0000000000, 0.0000000000, 0.0000000000, 0.0000000000, -3.4313823688, -0.5946965989, -1.5013980425, -1.5074348150, 2.0017286949, 3.0000000000, 0.0027955833
          13, 0.0000000000, 0.0000000000, 0.0000000000, 0.0000000000, 0.0000000000, 0.0000000000, 0.0000000000, 0.0000000000, 0.0000000000, 0.0000000000, -3.4121156043, -0.6030071753, -1.4450493093, -1.4506820380, 2.0195465066, 3.0000000000, 0.0030135167
          14, 0.0000000000, 0.0000000000, 0.0000000000, 0.0000000000, 0.0000000000, 0.0000000000, 0.0000000000, 0.0000000000, 0.0000000000, 0.0000000000, -3.3963672163, -0.6113441729, -1.3939823634, -1.3992013384, 2.0338939552, 3.0000000000, 0.0032345167
          15, 0.0000000000, 0.0000000000, 0.0000000000, 0.0000000000, 0.0000000000, 0.0000000000, 0.0000000000, 0.0000000000, 0.0000000000, 0.0000000000, -3.3837888805, -0.6196193580, -1.3475528064, -1.3523501412, 2.0450914996, 3.0000000000, 0.0034554167
          16, 0.0000000000, 0.0000000000, 0.0000000000, 0.0000000000, 0.0000000000, 0.0000000000, 0.0000000000, 0.0000000000, 0.0000000000, 0.0000000000, -3.3741005754, -0.6277445523, -1.3052374995, -1.3096067205, 2.0533972353, 3.0000000000, 0.0036546000
          17, 0.0000000000, 0.0000000000, 0.0000000000, 0.0000000000, 0.0000000000, 0.0000000000, 0.0000000000, 0.0000000000, 0.0000000000, 0.0000000000, -3.3670733312, -0.6356341705, -1.2666057628, -1.2705415792, 2.0590219172, 3.0000000000, 0.0038593333
          18, 0.0000000000, 0.0000000000, 0.0000000000, 0.0000000000, 0.0000000000, 0.0000000000, 0.0000000000, 0.0000000000, 0.0000000000, 0.0000000000, -3.3625166314, -0.6432080240, -1.2312986174, -1.2347968039, 2.0621401538, 3.0000000000, 0.0040799000
          19, 0.0000000000, 0.0000000000, 0.0000000000, 0.0000000000, 0.0000000000, 0.0000000000, 0.0000000000, 0.0000000000, 0.0000000000, 0.0000000000, -3.3602688659, -0.6503942246, -1.1990135191, -1.2020708822, 2.0628990562, 3.0000000000, 0.0042926500
          20, 0.0000000000, 0.0000000000, 0.0000000000, 0.0000000000, 0.0000000000, 0.0000000000, 0.0000000000, 0.0000000000, 0.0000000000, 0.0000000000, -3.3601897944, -0.6571320002, -1.1694929336, -1.1721073314, 2.0614252113, 3.0000000000, 0.0044920333
          21, 0.0000000000, 0.0000000000, 0.0000000000, 0.0000000000, 0.0000000000, 0.0000000000, 0.0000000000, 0.0000000000, 0.0000000000, 0.0000000000, -3.3621543072, -0.6633741778, -1.1425156327, -1.1446860347, 2.0578306035, 3.0000000000, 0.0046896833
          22, 0.0000000000, 0.0000000000, 0.0000000000, 0.0000000000, 0.0000000000, 0.0000000000, 0.0000000000, 0.0000000000, 0.0000000000, 0.0000000000, -3.3660469869, -0.6690891068, -1.1178899720, -1.1196165524, 2.0522179467, 3.0000000000, 0.0048970167
          23, 0.0000000000, 0.0000000000, 0.0000000000, 0.0000000000, 0.0000000000, 0.0000000000, 0.0000000000, 0.0000000000, 0.0000000000, 0.0000000000, -3.3717569504, -0.6742618377, -1.0954486313, -1.0967328839, 2.0446859934, 3.0000000000, 0.0051044500
          24, 0.0000000000, 0.0000000000, 0.0000000000, 0.0000000000, 0.0000000000, 0.0000000000, 0.0000000000, 0.0000000000, 0.0000000000, 0.0000000000, -3.3791729862, -0.6788944020, -1.0750444371, -1.0758893116, 2.0353347551, 3.0000000000, 0.0053169167
          25, 0.0000000000, 0.0000000000, 0.0000000000, 0.0000000000, 0.0000000000, 0.0000000000, 0.0000000000, 0.0000000000, 0.0000000000, 0.0000000000, -3.3881784397, -0.6830051655, -1.0565470168, -1.0569570719, 2.0242713394, 3.0000000000, 0.0055235500
          26, 0.0000000000, 0.0000000000, 0.0000000000, 0.0000000000, 0.0000000000, 0.0000000000, 0.0000000000, 0.0000000000, 0.0000000000, 0.0000000000, -3.3986458358, -0.6866273390, -1.0398401042, -1.0398216785, 2.0116164650, 3.0000000000, 0.0057277333
          27, 0.0000000000, 0.0000000000, 0.0000000000, 0.0000000000, 0.0000000000, 0.0000000000, 0.0000000000, 0.0000000000, 0.0000000000, 0.0000000000, -3.4104311114, -0.6898067611, -1.0248193495, -1.0243807414, 1.9975119182, 3.0000000000, 0.0059322667
          28, 0.0000000000, 0.0000000000, 0.0000000000, 0.0000000000, 0.0000000000, 0.0000000000, 0.0000000000, 0.0000000000, 0.0000000000, 0.0000000000, -3.4233674643, -0.6925991239, -1.0113904671, -1.0105421320, 1.9821290941, 3.0000000000, 0.0061394833
          29, 0.0000000000, 0.0000000000, 0.0000000000, 0.0000000000, 0.0000000000, 0.0000000000, 0.0000000000, 0.0000000000, 0.0000000000, 0.0000000000, -3.4372591704, -0.6950670046, -0.9994677493, -0.9982225175, 1.9656782720, 3.0000000000, 0.0063358667
          30, 0.0000000000, 0.0000000000, 0.0000000000, 0.0000000000, 0.0000000000, 0.0000000000, 0.0000000000, 0.0000000000, 0.0000000000, 0.0000000000, -3.4518757573, -0.6972767108, -0.9889727670, -0.9873460295, 1.9484182860, 3.0000000000, 0.0065260000
          31, 0.0000000000, 0.0000000000, 0.0000000000, 0.0000000000, 0.0000000000, 0.0000000000, 0.0000000000, 0.0000000000, 0.0000000000, 0.0000000000, -3.4669473638, -0.6992953988, -0.9798333603, -0.9778432798, 1.9306654285, 3.0000000000, 0.0066909667
          32, 0.0000000000, 0.0000000000, 0.0000000000, 0.0000000000, 0.0000000000, 0.0000000000, 0.0000000000, 0.0000000000, 0.0000000000, 0.0000000000, -3.4821627819, -0.7011884365, -0.9719827480, -0.9696504786, 1.9127993566, 3.0000000000, 0.0068809167
          33, 0.0000000000, 0.0000000000, 0.0000000000, 0.0000000000, 0.0000000000, 0.0000000000, 0.0000000000, 0.0000000000, 0.0000000000, 0.0000000000, -3.4971718459, -0.7030171216, -0.9653587604, -0.9627086453, 1.8952630442, 3.0000000000, 0.0070788667
          34, 0.0000000000, 0.0000000000, 0.0000000000, 0.0000000000, 0.0000000000, 0.0000000000, 0.0000000000, 0.0000000000, 0.0000000000, 0.0000000000, -3.5115941917, -0.7048368666, -0.9599032159, -0.9569629872, 1.8785528178, 3.0000000000, 0.0072711333
          35, 0.0000000000, 0.0000000000, 0.0000000000, 0.0000000000, 0.0000000000, 0.0000000000, 0.0000000000, 0.0000000000, 0.0000000000, 0.0000000000, -3.5250360437, -0.7066958292, -0.9555613943, -0.9523623434, 1.8631946661, 3.0000000000, 0.0074804667
          36, 0.0000000000, 0.0000000000, 0.0000000000, 0.0000000000, 0.0000000000, 0.0000000000, 0.0000000000, 0.0000000000, 0.0000000000, 0.0000000000, -3.5371155502, -0.7086338879, -0.9522815375, -0.9488586588, 1.8497048727, 3.0000000000, 0.0076851667
          37, 0.0000000000, 0.0000000000, 0.0000000000, 0.0000000000, 0.0000000000, 0.0000000000, 0.0000000000, 0.0000000000, 0.0000000000, 0.0000000000, -3.5474947233, -0.7106821116, -0.9500145865, -0.9464067111, 1.8385377521, 3.0000000000, 0.0079101167
          38, 0.0000000000, 0.0000000000, 0.0000000000, 0.0000000000, 0.0000000000, 0.0000000000, 0.0000000000, 0.0000000000, 0.0000000000, 0.0000000000, -3.5559138927, -0.7128623948, -0.9487137789, -0.9449636511, 1.8300284029, 3.0000000000, 0.0081249000
          39, 0.0000000000, 0.0000000000, 0.0000000000, 0.0000000000, 0.0000000000, 0.0000000000, 0.0000000000, 0.0000000000, 0.0000000000, 0.0000000000, -3.5622215953, -0.7151874779, -0.9483345123, -0.9444888047, 1.8243445319, 3.0000000000, 0.0083327333
          40, 0.0000000000, 0.0000000000, 0.0000000000, 0.0000000000, 0.0000000000, 0.0000000000, 0.0000000000, 0.0000000000, 0.0000000000, 0.0000000000, -3.5663930473, -0.7176611058, -0.9488341017, -0.9449434020, 1.8214609968, 3.0000000000, 0.0085351833
          41, 0.0000000000, 0.0000000000, 0.0000000000, 0.0000000000, 0.0000000000, 0.0000000000, 0.0000000000, 0.0000000000, 0.0000000000, 0.0000000000, -3.5685321743, -0.7202786399, -0.9501722168, -0.9462907506, 1.8211655642, 3.0000000000, 0.0087356000
          42, 0.0000000000, 0.0000000000, 0.0000000000, 0.0000000000, 0.0000000000, 0.0000000000, 0.0000000000, 0.0000000000, 0.0000000000, 0.0000000000, -3.5688560852, -0.7230271002, -0.9523095085, -0.9484952879, 1.8230946159, 3.0000000000, 0.0089608500
          43, 0.0000000000, 0.0000000000, 0.0000000000, 0.0000000000, 0.0000000000, 0.0000000000, 0.0000000000, 0.0000000000, 0.0000000000, 0.0000000000, -3.5676672906, -0.7258863179, -0.9552086978, -0.9515231680, 1.8267861204, 3.0000000000, 0.0091748500
          44, 0.0000000000, 0.0000000000, 0.0000000000, 0.0000000000, 0.0000000000, 0.0000000000, 0.0000000000, 0.0000000000, 0.0000000000, 0.0000000000, -3.5653194330, -0.7288296811, -0.9588343923, -0.9553420204, 1.8317367238, 3.0000000000, 0.0093896500
          45, 0.0000000000, 0.0000000000, 0.0000000000, 0.0000000000, 0.0000000000, 0.0000000000, 0.0000000000, 0.0000000000, 0.0000000000, 0.0000000000, -3.5621834121, -0.7318251003, -0.9631530724, -0.9599208784, 1.8374510909, 3.0000000000, 0.0095980000
          46, 0.0000000000, 0.0000000000, 0.0000000000, 0.0000000000, 0.0000000000, 0.0000000000, 0.0000000000, 0.0000000000, 0.0000000000, 0.0000000000, -3.5586197383, -0.7348362864, -0.9681332449, -0.9652303426, 1.8434762768, 3.0000000000, 0.0098180500
          47, 0.0000000000, 0.0000000000, 0.0000000000, 0.0000000000, 0.0000000000, 0.0000000000, 0.0000000000, 0.0000000000, 0.0000000000, 0.0000000000, -3.5549591987, -0.7378239349, -0.9737454909, -0.9712424086, 1.8494206675, 3.0000000000, 0.0100109333
          48, 0.0000000000, 0.0000000000, 0.0000000000, 0.0000000000, 0.0000000000, 0.0000000000, 0.0000000000, 0.0000000000, 0.0000000000, 0.0000000000, -3.5514914408, -0.7407472543, -0.9799628387, -0.9779307787, 1.8549610070, 3.0000000000, 0.0102375667
          49, 0.0000000000, 0.0000000000, 0.0000000000, 0.0000000000, 0.0000000000, 0.0000000000, 0.0000000000, 0.0000000000, 0.0000000000, 0.0000000000, -3.5484605990, -0.7435653059, -0.9867606094, -0.9852706204, 1.8598405130, 3.0000000000, 0.0104454833
          50, 0.0000000000, 0.0000000000, 0.0000000000, 0.0000000000, 0.0000000000, 0.0000000000, 0.0000000000, 0.0000000000, 0.0000000000, 0.0000000000, -3.5460651642, -0.7462388162, -0.9941169421, -0.9932389575, 1.8638631042, 3.0000000000, 0.0106516500
          51, 0.0000000000, 0.0000000000, 0.0000000000, 0.0000000000, 0.0000000000, 0.0000000000, 0.0000000000, 0.0000000000, 0.0000000000, 0.0000000000, -3.5444612394, -0.7487315753, -1.0020129685, -1.0018150202, 1.8668850216, 3.0000000000, 0.0108707333
          52, 0.0000000000, 0.0000000000, 0.0000000000, 0.0000000000, 0.0000000000, 0.0000000000, 0.0000000000, 0.0000000000, 0.0000000000, 0.0000000000, -3.5437668995, -0.7510116753, -1.0104327989, -1.0109797407, 1.8688063537, 3.0000000000, 0.0110889333
          53, 0.0000000000, 0.0000000000, 0.0000000000, 0.0000000000, 0.0000000000, 0.0000000000, 0.0000000000, 0.0000000000, 0.0000000000, 0.0000000000, -3.5440666178, -0.7530530035, -1.0193631664, -1.0207159646, 1.8695640431, 3.0000000000, 0.0113032333
          54, 0.0000000000, 0.0000000000, 0.0000000000, 0.0000000000, 0.0000000000, 0.0000000000, 0.0000000000, 0.0000000000, 0.0000000000, 0.0000000000, -3.5454157056, -0.7548359013, -1.0287925950, -1.0310081402, 1.8691255003, 3.0000000000, 0.0115238333
          55, 0.0000000000, 0.0000000000, 0.0000000000, 0.0000000000, 0.0000000000, 0.0000000000, 0.0000000000, 0.0000000000, 0.0000000000, 0.0000000000, -3.5478435936, -0.7563486884, -1.0387132927, -1.0418430126, 1.8674845977, 3.0000000000, 0.0117402667
          56, 0.0000000000, 0.0000000000, 0.0000000000, 0.0000000000, 0.0000000000, 0.0000000000, 0.0000000000, 0.0000000000, 0.0000000000, 0.0000000000, -3.5513567141, -0.7575877628, -1.0491200046, -1.0532091293, 1.8646580754, 3.0000000000, 0.0119624000
          57, 0.0000000000, 0.0000000000, 0.0000000000, 0.0000000000, 0.0000000000, 0.0000000000, 0.0000000000, 0.0000000000, 0.0000000000, 0.0000000000, -3.5559403252, -0.7585577028, -1.0600096642, -1.0650966264, 1.8606835099, 3.0000000000, 0.0121575833
          58, 0.0000000000, 0.0000000000, 0.0000000000, 0.0000000000, 0.0000000000, 0.0000000000, 0.0000000000, 0.0000000000, 0.0000000000, 0.0000000000, -3.5615595471, -0.7592709859, -1.0713808861, -1.0774968338, 1.8556182542, 3.0000000000, 0.0123248500
          59, 0.0000000000, 0.0000000000, 0.0000000000, 0.0000000000, 0.0000000000, 0.0000000000, 0.0000000000, 0.0000000000, 0.0000000000, 0.0000000000, -3.5681598490, -0.7597474335, -1.0832332156, -1.0904017109, 1.8495390156, 3.0000000000, 0.0124864833
          60, 0.0000000000, 0.0000000000, 0.0000000000, 0.0000000000, 0.0000000000, 0.0000000000, 0.0000000000, 0.0000000000, 0.0000000000, 0.0000000000, -3.5756665288, -0.7600131388, -1.0955662264, -1.1038030460, 1.8425424524, 3.0000000000, 0.0126474000
          61, 0.0000000000, 0.0000000000, 0.0000000000, 0.0000000000, 0.0000000000, 0.0000000000, 0.0000000000, 0.0000000000, 0.0000000000, 0.0000000000, -3.5839841338, -0.7600993618, -1.1083783654, -1.1176914337, 1.8347457234, 3.0000000000, 0.0128517333
          62, 0.0000000000, 0.0000000000, 0.0000000000, 0.0000000000, 0.0000000000, 0.0000000000, 0.0000000000, 0.0000000000, 0.0000000000, 0.0000000000, -3.5929956108, -0.7600414779, -1.1216655166, -1.1320549846, 1.8262871533, 3.0000000000, 0.0130298167
          63, 0.0000000000, 0.0000000000, 0.0000000000, 0.0000000000, 0.0000000000, 0.0000000000, 0.0000000000, 0.0000000000, 0.0000000000, 0.0000000000, -3.6025616669, -0.7598774951, -1.1354191904, -1.1468775002, 1.8173264259, 3.0000000000, 0.0132039333
          64, 0.0000000000, 0.0000000000, 0.0000000000, 0.0000000000, 0.0000000000, 0.0000000000, 0.0000000000, 0.0000000000, 0.0000000000, 0.0000000000, -3.6125206876, -0.7596468033, -1.1496244096, -1.1621364832, 1.8080439321, 3.0000000000, 0.0133990667
          65, 0.0000000000, 0.0000000000, 0.0000000000, 0.0000000000, 0.0000000000, 0.0000000000, 0.0000000000, 0.0000000000, 0.0000000000, 0.0000000000, -3.6226897911, -0.7593889002, -1.1642569487, -1.1778005680, 1.7986386168, 3.0000000000, 0.0135795000
          66, 0.0000000000, 0.0000000000, 0.0000000000, 0.0000000000, 0.0000000000, 0.0000000000, 0.0000000000, 0.0000000000, 0.0000000000, 0.0000000000, -3.6328674381, -0.7591422175, -1.1792805149, -1.1938259479, 1.7893239252, 3.0000000000, 0.0137708000
          67, 0.0000000000, 0.0000000000, 0.0000000000, 0.0000000000, 0.0000000000, 0.0000000000, 0.0000000000, 0.0000000000, 0.0000000000, 0.0000000000, -3.6428383651, -0.7589430959, -1.1946428428, -1.2101528077, 1.7803212521, 3.0000000000, 0.0139462000
          68, 0.0000000000, 0.0000000000, 0.0000000000, 0.0000000000, 0.0000000000, 0.0000000000, 0.0000000000, 0.0000000000, 0.0000000000, 0.0000000000, -3.6523809125, -0.7588257641, -1.2102721924, -1.2267012088, 1.7718509604, 3.0000000000, 0.0141414500
          69, 0.0000000000, 0.0000000000, 0.0000000000, 0.0000000000, 0.0000000000, 0.0000000000, 0.0000000000, 0.0000000000, 0.0000000000, 0.0000000000, -3.6612772691, -0.7588206342, -1.2260723190, -1.2433655248, 1.7641207577, 3.0000000000, 0.0143386167
          70, 0.0000000000, 0.0000000000, 0.0000000000, 0.0000000000, 0.0000000000, 0.0000000000, 0.0000000000, 0.0000000000, 0.0000000000, 0.0000000000, -3.6693257257, -0.7589524974, -1.2419178035, -1.2600095698, 1.7573130103, 3.0000000000, 0.0145421333
          71, 0.0000000000, 0.0000000000, 0.0000000000, 0.0000000000, 0.0000000000, 0.0000000000, 0.0000000000, 0.0000000000, 0.0000000000, 0.0000000000, -3.6763539071, -0.7592432425, -1.2576504654, -1.2764628316, 1.7515719775, 3.0000000000, 0.0147416000
          72, 0.0000000000, 0.0000000000, 0.0000000000, 0.0000000000, 0.0000000000, 0.0000000000, 0.0000000000, 0.0000000000, 0.0000000000, 0.0000000000, -3.6822318857, -0.7597095604, -1.2730753264, -1.2925148890, 1.7469925716, 3.0000000000, 0.0149370500
          73, 0.0000000000, 0.0000000000, 0.0000000000, 0.0000000000, 0.0000000000, 0.0000000000, 0.0000000000, 0.0000000000, 0.0000000000, 0.0000000000, -3.6868825520, -0.7603623875, -1.2879590751, -1.3079130226, 1.7436130938, 3.0000000000, 0.0151387833
          74, 0.0000000000, 0.0000000000, 0.0000000000, 0.0000000000, 0.0000000000, 0.0000000000, 0.0000000000, 0.0000000000, 0.0000000000, 0.0000000000, -3.6902876332, -0.7612087942, -1.3020326650, -1.3223665769, 1.7414129265, 3.0000000000, 0.0153244667
          75, 0.0000000000, 0.0000000000, 0.0000000000, 0.0000000000, 0.0000000000, 0.0000000000, 0.0000000000, 0.0000000000, 0.0000000000, 0.0000000000, -3.6924886299, -0.7622511244, -1.3149975044, -1.3355533721, 1.7403154475, 3.0000000000, 0.0155331667
          76, 0.0000000000, 0.0000000000, 0.0000000000, 0.0000000000, 0.0000000000, 0.0000000000, 0.0000000000, 0.0000000000, 0.0000000000, 0.0000000000, -3.6935820083, -0.7634871137, -1.3265379948, -1.3471339739, 1.7401960092, 3.0000000000, 0.0157232167
          77, 0.0000000000, 0.0000000000, 0.0000000000, 0.0000000000, 0.0000000000, 0.0000000000, 0.0000000000, 0.0000000000, 0.0000000000, 0.0000000000, -3.6937097567, -0.7649102279, -1.3363408328, -1.3567738201, 1.7408933530, 3.0000000000, 0.0158841667
          78, 0.0000000000, 0.0000000000, 0.0000000000, 0.0000000000, 0.0000000000, 0.0000000000, 0.0000000000, 0.0000000000, 0.0000000000, 0.0000000000, -3.6930468547, -0.7665099285, -1.3441196315, -1.3641713892, 1.7422227414, 3.0000000000, 0.0160730333
          79, 0.0000000000, 0.0000000000, 0.0000000000, 0.0000000000, 0.0000000000, 0.0000000000, 0.0000000000, 0.0000000000, 0.0000000000, 0.0000000000, -3.6917876770, -0.7682720189, -1.3496423881, -1.3690892101, 1.7439889266, 3.0000000000, 0.0162112000
          80, 0.0000000000, 0.0000000000, 0.0000000000, 0.0000000000, 0.0000000000, 0.0000000000, 0.0000000000, 0.0000000000, 0.0000000000, 0.0000000000, -3.6901330951, -0.7701791834, -1.3527574039, -1.3713822635, 1.7459975694, 3.0000000000, 0.0163532167
          81, 0.0000000000, 0.0000000000, 0.0000000000, 0.0000000000, 0.0000000000, 0.0000000000, 0.0000000000, 0.0000000000, 0.0000000000, 0.0000000000, -3.6882794846, -0.7722110883, -1.3534114894, -1.3710168451, 1.7480643398, 3.0000000000, 0.0165056500
          82, 0.0000000000, 0.0000000000, 0.0000000000, 0.0000000000, 0.0000000000, 0.0000000000, 0.0000000000, 0.0000000000, 0.0000000000, 0.0000000000, -3.6864103593, -0.7743456826, -1.3516580747, -1.3680769562, 1.7500213622, 3.0000000000, 0.0166721833
          83, 0.0000000000, 0.0000000000, 0.0000000000, 0.0000000000, 0.0000000000, 0.0000000000, 0.0000000000, 0.0000000000, 0.0000000000, 0.0000000000, -3.6846906369, -0.7765590314, -1.3476502817, -1.3627535651, 1.7517212818, 3.0000000000, 0.0168313000
          84, 0.0000000000, 0.0000000000, 0.0000000000, 0.0000000000, 0.0000000000, 0.0000000000, 0.0000000000, 0.0000000000, 0.0000000000, 0.0000000000, -3.6832632888, -0.7788263263, -1.3416234677, -1.3553224799, 1.7530392912, 3.0000000000, 0.0170030833
          85, 0.0000000000, 0.0000000000, 0.0000000000, 0.0000000000, 0.0000000000, 0.0000000000, 0.0000000000, 0.0000000000, 0.0000000000, 0.0000000000, -3.6822478706, -0.7811226548, -1.3338695928, -1.3461143082, 1.7538736627, 3.0000000000, 0.0171701000
          86, 0.0000000000, 0.0000000000, 0.0000000000, 0.0000000000, 0.0000000000, 0.0000000000, 0.0000000000, 0.0000000000, 0.0000000000, 0.0000000000, -3.6817404697, -0.7834235423, -1.3247100068, -1.3354838498, 1.7541452669, 3.0000000000, 0.0173443833
          87, 0.0000000000, 0.0000000000, 0.0000000000, 0.0000000000, 0.0000000000, 0.0000000000, 0.0000000000, 0.0000000000, 0.0000000000, 0.0000000000, -3.6818142231, -0.7857047913, -1.3144696873, -1.3237828356, 1.7537967299, 3.0000000000, 0.0175240667
          88, 0.0000000000, 0.0000000000, 0.0000000000, 0.0000000000, 0.0000000000, 0.0000000000, 0.0000000000, 0.0000000000, 0.0000000000, 0.0000000000, -3.6825207779, -0.7879443949, -1.3034582369, -1.3113405738, 1.7527908928, 3.0000000000, 0.0176416833
          89, 0.0000000000, 0.0000000000, 0.0000000000, 0.0000000000, 0.0000000000, 0.0000000000, 0.0000000000, 0.0000000000, 0.0000000000, 0.0000000000, -3.6838915499, -0.7901226202, -1.2919562909, -1.2984510303, 1.7511095614, 3.0000000000, 0.0177903333
          90, 0.0000000000, 0.0000000000, 0.0000000000, 0.0000000000, 0.0000000000, 0.0000000000, 0.0000000000, 0.0000000000, 0.0000000000, 0.0000000000, -3.6859391833, -0.7922225782, -1.2802085592, -1.2853673093, 1.7487521500, 3.0000000000, 0.0179271000
          91, 0.0000000000, 0.0000000000, 0.0000000000, 0.0000000000, 0.0000000000, 0.0000000000, 0.0000000000, 0.0000000000, 0.0000000000, 0.0000000000, -3.6886587853, -0.7942306515, -1.2684214141, -1.2723005447, 1.7457345423, 3.0000000000, 0.0180769167
          92, 0.0000000000, 0.0000000000, 0.0000000000, 0.0000000000, 0.0000000000, 0.0000000000, 0.0000000000, 0.0000000000, 0.0000000000, 0.0000000000, -3.6920290404, -0.7961368296, -1.2567639407, -1.2594221943, 1.7420880614, 3.0000000000, 0.0182143167
          93, 0.0000000000, 0.0000000000, 0.0000000000, 0.0000000000, 0.0000000000, 0.0000000000, 0.0000000000, 0.0000000000, 0.0000000000, 0.0000000000, -3.6960131878, -0.7979349340, -1.2453710331, -1.2468681272, 1.7378585227, 3.0000000000, 0.0183973500
          94, 0.0000000000, 0.0000000000, 0.0000000000, 0.0000000000, 0.0000000000, 0.0000000000, 0.0000000000, 0.0000000000, 0.0000000000, 0.0000000000, -3.7005599313, -0.7996226946, -1.2343475130, -1.2347434693, 1.7331052966, 3.0000000000, 0.0185722333
          95, 0.0000000000, 0.0000000000, 0.0000000000, 0.0000000000, 0.0000000000, 0.0000000000, 0.0000000000, 0.0000000000, 0.0000000000, 0.0000000000, -3.7056043129, -0.8012015223, -1.2237723969, -1.2231273465, 1.7279003695, 3.0000000000, 0.0187377333
          96, 0.0000000000, 0.0000000000, 0.0000000000, 0.0000000000, 0.0000000000, 0.0000000000, 0.0000000000, 0.0000000000, 0.0000000000, 0.0000000000, -3.7110687942, -0.8026765108, -1.2137033325, -1.2120776383, 1.7223270096, 3.0000000000, 0.0189009833
          97, 0.0000000000, 0.0000000000, 0.0000000000, 0.0000000000, 0.0000000000, 0.0000000000, 0.0000000000, 0.0000000000, 0.0000000000, 0.0000000000, -3.7168645488, -0.8040561370, -1.2041804936, -1.2016349733, 1.7164782033, 3.0000000000, 0.0190412167
          98, 0.0000000000, 0.0000000000, 0.0000000000, 0.0000000000, 0.0000000000, 0.0000000000, 0.0000000000, 0.0000000000, 0.0000000000, 0.0000000000, -3.7228931641, -0.8053514680, -1.1952297069, -1.1918260548, 1.7104547254, 3.0000000000, 0.0191753000
          99, 0.0000000000, 0.0000000000, 0.0000000000, 0.0000000000, 0.0000000000, 0.0000000000, 0.0000000000, 0.0000000000, 0.0000000000, 0.0000000000, -3.7290488662, -0.8065760383, -1.1868656480, -1.1826666740, 1.7043624319, 3.0000000000, 0.0193015000
         100, 0.0000000000, 0.0000000000, 0.0000000000, 0.0000000000, 0.0000000000, 0.0000000000, 0.0000000000, 0.0000000000, 0.0000000000, 0.0000000000, -3.7352213630, -0.8077451471, -1.1790941675, -1.1741640323, 1.6983091075, 3.0000000000, 0.0194388000
         101, 0.0000000000, 0.0000000000, 0.0000000000, 0.0000000000, 0.0000000000, 0.0000000000, 0.0000000000, 0.0000000000, 0.0000000000, 0.0000000000, -3.7412993322, -0.8088752457, -1.1719143165, -1.1663186845, 1.6924007019, 3.0000000000, 0.0195543833
         102, 0.0000000000, 0.0000000000, 0.0000000000, 0.0000000000, 0.0000000000, 0.0000000000, 0.0000000000, 0.0000000000, 0.0000000000, 0.0000000000, -3.7471746437, -0.8099836755, -1.1653207425, -1.1591263706, 1.6867369394, 3.0000000000, 0.0197247000
         103, 0.0000000000, 0.0000000000, 0.0000000000, 0.0000000000, 0.0000000000, 0.0000000000, 0.0000000000, 0.0000000000, 0.0000000000, 0.0000000000, -3.7527464179, -0.8110869876, -1.1593028617, -1.1525783192, 1.6814074606, 3.0000000000, 0.0198831500
         104, 0.0000000000, 0.0000000000, 0.0000000000, 0.0000000000, 0.0000000000, 0.0000000000, 0.0000000000, 0.0000000000, 0.0000000000, 0.0000000000, -3.7579260525, -0.8122013355, -1.1538478990, -1.1466631291, 1.6764870128, 3.0000000000, 0.0200154000
         105, 0.0000000000, 0.0000000000, 0.0000000000, 0.0000000000, 0.0000000000, 0.0000000000, 0.0000000000, 0.0000000000, 0.0000000000, 0.0000000000, -3.7626416058, -0.8133417816, -1.1489414649, -1.1413673059, 1.6720317064, 3.0000000000, 0.0201332500
         106, 0.0000000000, 0.0000000000, 0.0000000000, 0.0000000000, 0.0000000000, 0.0000000000, 0.0000000000, 0.0000000000, 0.0000000000, 0.0000000000, -3.7668415520, -0.8145217436, -1.1445680967, -1.1366758737, 1.6680761196, 3.0000000000, 0.0202745167
         107, 0.0000000000, 0.0000000000, 0.0000000000, 0.0000000000, 0.0000000000, 0.0000000000, 0.0000000000, 0.0000000000, 0.0000000000, 0.0000000000, -3.7704975350, -0.8157525981, -1.1407118609, -1.1325728626, 1.6646315640, 3.0000000000, 0.0204040000
         108, 0.0000000000, 0.0000000000, 0.0000000000, 0.0000000000, 0.0000000000, 0.0000000000, 0.0000000000, 0.0000000000, 0.0000000000, 0.0000000000, -3.7736057567, -0.8170433511, -1.1373568233, -1.1290416794, 1.6616857683, 3.0000000000, 0.0205473833
         109, 0.0000000000, 0.0000000000, 0.0000000000, 0.0000000000, 0.0000000000, 0.0000000000, 0.0000000000, 0.0000000000, 0.0000000000, 0.0000000000, -3.7761868342, -0.8184003839, -1.1344874147, -1.1260654054, 1.6592040167, 3.0000000000, 0.0207145167
         110, 0.0000000000, 0.0000000000, 0.0000000000, 0.0000000000, 0.0000000000, 0.0000000000, 0.0000000000, 0.0000000000, 0.0000000000, 0.0000000000, -3.7782841409, -0.8198272939, -1.1320887413, -1.1236270273, 1.6571316120, 3.0000000000, 0.0208922167
         111, 0.0000000000, 0.0000000000, 0.0000000000, 0.0000000000, 0.0000000000, 0.0000000000, 0.0000000000, 0.0000000000, 0.0000000000, 0.0000000000, -3.7799608275, -0.8213248545, -1.1301468398, -1.1217096530, 1.6553973844, 3.0000000000, 0.0210320500
         112, 0.0000000000, 0.0000000000, 0.0000000000, 0.0000000000, 0.0000000000, 0.0000000000, 0.0000000000, 0.0000000000, 0.0000000000, 0.0000000000, -3.7812958841, -0.8228907666, -1.1286487133, -1.1202965985, 1.6539178653, 3.0000000000, 0.0211562167
         113, 0.0000000000, 0.0000000000, 0.0000000000, 0.0000000000, 0.0000000000, 0.0000000000, 0.0000000000, 0.0000000000, 0.0000000000, 0.0000000000, -3.7823796547, -0.8245198984, -1.1275825259, -1.1193714071, 1.6526017109, 3.0000000000, 0.0213296500
         114, 0.0000000000, 0.0000000000, 0.0000000000, 0.0000000000, 0.0000000000, 0.0000000000, 0.0000000000, 0.0000000000, 0.0000000000, 0.0000000000, -3.7833091421, -0.8262044051, -1.1269376449, -1.1189180736, 1.6513541279, 3.0000000000, 0.0214996167
         115, 0.0000000000, 0.0000000000, 0.0000000000, 0.0000000000, 0.0000000000, 0.0000000000, 0.0000000000, 0.0000000000, 0.0000000000, 0.0000000000, -3.7841836023, -0.8279339020, -1.1267046220, -1.1189209522, 1.6500808637, 3.0000000000, 0.0216495333