TITLE = "SU2 Simulation"
VARIABLES = "Iteration","CLift","CDrag","CSideForce","CMx","CMy","CMz","CFx","CFy","CFz","CL/CD","Res_Flow[0]","Res_Flow[1]","Res_Flow[2]","Res_Flow[3]","Res_Flow[4]","Linear_Solver_Iterations","Time(min)"
ZONE T= "Convergence history"
           0, 0.0000000000, 0.0000000000, 0.0000000000, 0.0000000000, 0.0000000000, 0.0000000000, 0.0000000000, 0.0000000000, 0.0000000000, 0.0000000000, 4.8642413679, 7.8133932922, -5.0739793807, -5.0105689053, 10.3116548029, 5.0000000000, 0.0014561333
           1, 0.0000000000, 0.0000000000, 0.0000000000, 0.0000000000, 0.0000000000, 0.0000000000, 0.0000000000, 0.0000000000, 0.0000000000, 0.0000000000, 4.9288879472, 7.7836757205, 6.6384370458, 6.6633829437, 10.3786495570, 5.0000000000, 0.0028520000
           2, 0.0000000000, 0.0000000000, 0.0000000000, 0.0000000000, 0.0000000000, 0.0000000000, 0.0000000000, 0.0000000000, 0.0000000000, 0.0000000000, 4.8983843441, 7.7063456639, 6.8909479497, 6.8973913292, 10.4080208449, 5.0000000000, 0.0042762500
           3, 0.0000000000, 0.0000000000, 0.0000000000, 0.0000000000, 0.0000000000, 0.0000000000, 0.0000000000, 0.0000000000, 0.0000000000, 0.0000000000, 4.9321080136, 7.7251466726, 7.0034705064, 7.0127825555, 10.3803355475, 5.0000000000, 0.0057256833
           4, 0.0000000000, 0.0000000000, 0.0000000000, 0.0000000000, 0.0000000000, 0.0000000000, 0.0000000000, 0.0000000000, 0.0000000000, 0.0000000000, 4.9771472961, 7.7342575004, 7.1162037043, 7.1215202763, 10.4667134949, 5.0000000000, 0.0072399833
           5, 0.0000000000, 0.0000000000, 0.0000000000, 0.0000000000, 0.0000000000, 0.0000000000, 0.0000000000, 0.0000000000, 0.0000000000, 0.0000000000, 5.0470541153, 7.7930200757, 7.2079667851, 7.2145181493, 10.5066751375, 5.0000000000, 0.0086340167
           6, 0.0000000000, 0.0000000000, 0.0000000000, 0.0000000000, 0.0000000000, 0.0000000000, 0.0000000000, 0.0000000000, 0.0000000000, 0.0000000000, 5.0822696463, 7.8167396524, 7.2661312641, 7.2716953619, 10.5727139576, 5.0000000000, 0.0099908000
           7, 0.0000000000, 0.0000000000, 0.0000000000, 0.0000000000, 0.0000000000, 0.0000000000, 0.0000000000, 0.0000000000, 0.0000000000, 0.0000000000, 5.1631475686, 7.8949982513, 7.2904230410, 7.2971024590, 10.6476054760, 5.0000000000, 0.0111212500
           8, 0.0000000000, 0.0000000000, 0.0000000000, 0.0000000000, 0.0000000000, 0.0000000000, 0.0000000000, 0.0000000000, 0.0000000000, 0.0000000000, 5.1901787769, 7.9181535734, 7.2844882590, 7.2895313518, 10.6729454117, 5.0000000000, 0.0122951833
           9, 0.0000000000, 0.0000000000, 0.0000000000, 0.0000000000, 0.0000000000, 0.0000000000, 0.0000000000, 0.0000000000, 0.0000000000, 0.0000000000, 5.2936995772, 8.0135606232, 7.2557044839, 7.2590359835, 10.8011650289, 5.0000000000, 0.0135937500
          10, 0.0000000000, 0.0000000000, 0.0000000000, 0.0000000000, 0.0000000000, 0.0000000000, 0.0000000000, 0.0000000000, 0.0000000000, 0.0000000000, 5.3552222494, 8.0748195785, 7.2106635618, 7.2082204819, 10.8500005050, 5.0000000000, 0.0148833667
          11, 0.0000000000, 0.0000000000, 0.0000000000, 0.0000000000, 0.0000000000, 0.0000000000, 0.0000000000, 0.0000000000, 0.0000000000, 0.0000000000, 5.4076836441, 8.1287164842, 7.1675572594, 7.1645534749, 10.8833115263, 5.0000000000, 0.0160550500
          12, 0.0000000000, 0.0000000000, 0.0000000000, 0.0000000000, 0.0000000000, 0.0000000000, 0.0000000000, 0.0000000000, 0.0000000000, 0.0000000000, 5.4588814967, 8.1904041112, 7.1333733706, 7.1355503525, 10.9606839332, 5.0000000000, 0.0171861333
          13, 0.0000000000, 0.0000000000, 0.0000000000, 0.0000000000, 0.0000000000, 0.0000000000, 0.0000000000, 0.0000000000, 0.0000000000, 0.0000000000, 5.5270168055, 8.2649991963, 7.1477027078, 7.1592999536, 11.0148265366, 5.0000000000, 0.0183423167
          14, 0.0000000000, 0.0000000000, 0.0000000000, 0.0000000000, 0.0000000000, 0.0000000000, 0.0000000000, 0.0000000000, 0.0000000000, 0.0000000000, 5.6177272315, 8.3512373481, 7.1910122767, 7.2038847043, 11.1274519998, 5.0000000000, 0.0194431833
          15, 0.0000000000, 0.0000000000, 0.0000000000, 0.0000000000, 0.0000000000, 0.0000000000, 0.0000000000, 0.0000000000, 0.0000000000, 0.0000000000, 5.6586543215, 8.3983250890, 7.2553765135, 7.2602328775, 11.1400531382, 5.0000000000, 0.0206133500
          16, 0.0000000000, 0.0000000000, 0.0000000000, 0.0000000000, 0.0000000000, 0.0000000000, 0.0000000000, 0.0000000000, 0.0000000000, 0.0000000000, 5.6835637891, 8.4352404018, 7.2759950666, 7.3250267445, 11.1631375405, 5.0000000000, 0.0217202833
          17, 0.0000000000, 0.0000000000, 0.0000000000, 0.0000000000, 0.0000000000, 0.0000000000, 0.0000000000, 0.0000000000, 0.0000000000, 0.0000000000, 5.7537451056, 8.5066134804, 7.2969292079, 7.3335874920, 11.2626787779, 5.0000000000, 0.0230883833
          18, 0.0000000000, 0.0000000000, 0.0000000000, 0.0000000000, 0.0000000000, 0.0000000000, 0.0000000000, 0.0000000000, 0.0000000000, 0.0000000000, 5.8030674968, 8.5528375925, 7.3750524633, 7.3864196598, 11.2858763096, 5.0000000000, 0.0243770500
          19, 0.0000000000, 0.0000000000, 0.0000000000, 0.0000000000, 0.0000000000, 0.0000000000, 0.0000000000, 0.0000000000, 0.0000000000, 0.0000000000, 5.8161156382, 8.5681295308, 7.4419183632, 7.4347774452, 11.2772330805, 5.0000000000, 0.0254641667
          20, 0.0000000000, 0.0000000000, 0.0000000000, 0.0000000000, 0.0000000000, 0.0000000000, 0.0000000000, 0.0000000000, 0.0000000000, 0.0000000000, 5.8366488735, 8.5937849548, 7.4291945739, 7.4631754981, 11.3036322581, 5.0000000000, 0.0268047000
          21, 0.0000000000, 0.0000000000, 0.0000000000, 0.0000000000, 0.0000000000, 0.0000000000, 0.0000000000, 0.0000000000, 0.0000000000, 0.0000000000, 5.8715529918, 8.6346077553, 7.4425208796, 7.4804401458, 11.3467334744, 5.0000000000, 0.0279342667
          22, 0.0000000000, 0.0000000000, 0.0000000000, 0.0000000000, 0.0000000000, 0.0000000000, 0.0000000000, 0.0000000000, 0.0000000000, 0.0000000000, 5.9167553980, 8.6761449013, 7.4768833306, 7.5427519136, 11.3859155234, 5.0000000000, 0.0289817833
          23, 0.0000000000, 0.0000000000, 0.0000000000, 0.0000000000, 0.0000000000, 0.0000000000, 0.0000000000, 0.0000000000, 0.0000000000, 0.0000000000, 5.9498821716, 8.7110782387, 7.5201183588, 7.5390402533, 11.4094213031, 5.0000000000, 0.0300633167
          24, 0.0000000000, 0.0000000000, 0.0000000000, 0.0000000000, 0.0000000000, 0.0000000000, 0.0000000000, 0.0000000000, 0.0000000000, 0.0000000000, 5.9971534484, 8.7650363504, 7.5528746334, 7.5462993227, 11.4675748773, 5.0000000000, 0.0312286833
          25, 0.0000000000, 0.0000000000, 0.0000000000, 0.0000000000, 0.0000000000, 0.0000000000, 0.0000000000, 0.0000000000, 0.0000000000, 0.0000000000, 6.0074237054, 8.7755798546, 7.5930075814, 7.5755524003, 11.4525682924, 5.0000000000, 0.0322193833
          26, 0.0000000000, 0.0000000000, 0.0000000000, 0.0000000000, 0.0000000000, 0.0000000000, 0.0000000000, 0.0000000000, 0.0000000000, 0.0000000000, 6.0341250920, 8.8054982541, 7.5870989996, 7.6093658589, 11.4812558019, 5.0000000000, 0.0334102167
          27, 0.0000000000, 0.0000000000, 0.0000000000, 0.0000000000, 0.0000000000, 0.0000000000, 0.0000000000, 0.0000000000, 0.0000000000, 0.0000000000, 6.0466098516, 8.8185413529, 7.6090274418, 7.6596379027, 11.4864841281, 5.0000000000, 0.0345329833
          28, 0.0000000000, 0.0000000000, 0.0000000000, 0.0000000000, 0.0000000000, 0.0000000000, 0.0000000000, 0.0000000000, 0.0000000000, 0.0000000000, 6.0675310369, 8.8518262921, 7.6488959601, 7.6925092959, 11.5339805751, 5.0000000000, 0.0357387500
          29, 0.0000000000, 0.0000000000, 0.0000000000, 0.0000000000, 0.0000000000, 0.0000000000, 0.0000000000, 0.0000000000, 0.0000000000, 0.0000000000, 6.1054188427, 8.8863963724, 7.6676177147, 7.7459490485, 11.5594045516, 5.0000000000, 0.0371073833
          30, 0.0000000000, 0.0000000000, 0.0000000000, 0.0000000000, 0.0000000000, 0.0000000000, 0.0000000000, 0.0000000000, 0.0000000000, 0.0000000000, 6.1182430961, 8.9035535226, 7.7131535676, 7.7894912088, 11.5698427862, 5.0000000000, 0.0384621000
          31, 0.0000000000, 0.0000000000, 0.0000000000, 0.0000000000, 0.0000000000, 0.0000000000, 0.0000000000, 0.0000000000, 0.0000000000, 0.0000000000, 6.1598589155, 8.9419399319, 7.7341659393, 7.8190755853, 11.6117887158, 5.0000000000, 0.0397625333
          32, 0.0000000000, 0.0000000000, 0.0000000000, 0.0000000000, 0.0000000000, 0.0000000000, 0.0000000000, 0.0000000000, 0.0000000000, 0.0000000000, 6.2054018674, 8.9803200498, 7.7902836889, 7.8629596517, 11.6555900165, 5.0000000000, 0.0410795833
          33, 0.0000000000, 0.0000000000, 0.0000000000, 0.0000000000, 0.0000000000, 0.0000000000, 0.0000000000, 0.0000000000, 0.0000000000, 0.0000000000, 6.2602601780, 9.0366866373, 7.8532392992, 7.8862580472, 11.7139826803, 5.0000000000, 0.0423176167
          34, 0.0000000000, 0.0000000000, 0.0000000000, 0.0000000000, 0.0000000000, 0.0000000000, 0.0000000000, 0.0000000000, 0.0000000000, 0.0000000000, 6.2497766147, 9.0247542951, 7.9231025229, 7.9363378023, 11.6805126597, 5.0000000000, 0.0436433667
          35, 0.0000000000, 0.0000000000, 0.0000000000, 0.0000000000, 0.0000000000, 0.0000000000, 0.0000000000, 0.0000000000, 0.0000000000, 0.0000000000, 6.2742494805, 9.0571301810, 7.9801493680, 7.9982550381, 11.7231403993, 5.0000000000, 0.0449970333
          36, 0.0000000000, 0.0000000000, 0.0000000000, 0.0000000000, 0.0000000000, 0.0000000000, 0.0000000000, 0.0000000000, 0.0000000000, 0.0000000000, 6.2820117998, 9.0617752340, 8.0261788337, 8.0240177283, 11.7109960121, 5.0000000000, 0.0462720000
          37, 0.0000000000, 0.0000000000, 0.0000000000, 0.0000000000, 0.0000000000, 0.0000000000, 0.0000000000, 0.0000000000, 0.0000000000, 0.0000000000, 6.3022053002, 9.0721164770, 8.0510375409, 8.0379565574, 11.7450833400, 5.0000000000, 0.0476700667
          38, 0.0000000000, 0.0000000000, 0.0000000000, 0.0000000000, 0.0000000000, 0.0000000000, 0.0000000000, 0.0000000000, 0.0000000000, 0.0000000000, 6.2917144138, 9.0740726698, 8.0726858886, 8.0751356502, 11.7406969615, 5.0000000000, 0.0490260000
          39, 0.0000000000, 0.0000000000, 0.0000000000, 0.0000000000, 0.0000000000, 0.0000000000, 0.0000000000, 0.0000000000, 0.0000000000, 0.0000000000, 6.3344214456, 9.1182406013, 8.1107452076, 8.1444362152, 11.7850198405, 5.0000000000, 0.0501577333
          40, 0.0000000000, 0.0000000000, 0.0000000000, 0.0000000000, 0.0000000000, 0.0000000000, 0.0000000000, 0.0000000000, 0.0000000000, 0.0000000000, 6.3348783499, 9.1217315209, 8.1385390553, 8.1617288698, 11.7854203386, 5.0000000000, 0.0513045667
          41, 0.0000000000, 0.0000000000, 0.0000000000, 0.0000000000, 0.0000000000, 0.0000000000, 0.0000000000, 0.0000000000, 0.0000000000, 0.0000000000, 6.3207766278, 9.1273238228, 8.1358483401, 8.2006252865, 11.7932047622, 5.0000000000, 0.0524975667
          42, 0.0000000000, 0.0000000000, 0.0000000000, 0.0000000000, 0.0000000000, 0.0000000000, 0.0000000000, 0.0000000000, 0.0000000000, 0.0000000000, 6.3277422830, 9.1322859151, 8.1581424300, 8.2626485027, 11.8177931913, 5.0000000000, 0.0536129167
          43, 0.0000000000, 0.0000000000, 0.0000000000, 0.0000000000, 0.0000000000, 0.0000000000, 0.0000000000, 0.0000000000, 0.0000000000, 0.0000000000, 6.3423454831, 9.1490997778, 8.1949791887, 8.2982076576, 11.8379512133, 5.0000000000, 0.0547153667
          44, 0.0000000000, 0.0000000000, 0.0000000000, 0.0000000000, 0.0000000000, 0.0000000000, 0.0000000000, 0.0000000000, 0.0000000000, 0.0000000000, 6.3624678617, 9.1631027430, 8.2375405364, 8.3052323079, 11.8556968029, 5.0000000000, 0.0559101833
          45, 0.0000000000, 0.0000000000, 0.0000000000, 0.0000000000, 0.0000000000, 0.0000000000, 0.0000000000, 0.0000000000, 0.0000000000, 0.0000000000, 6.3940554605, 9.1997573601, 8.2961058671, 8.3433361955, 11.8986413552, 5.0000000000, 0.0571368500
          46, 0.0000000000, 0.0000000000, 0.0000000000, 0.0000000000, 0.0000000000, 0.0000000000, 0.0000000000, 0.0000000000, 0.0000000000, 0.0000000000, 6.4767856376, 9.2555674158, 8.3324490303, 8.3760335178, 11.9754825412, 5.0000000000, 0.0582403667
          47, 0.0000000000, 0.0000000000, 0.0000000000, 0.0000000000, 0.0000000000, 0.0000000000, 0.0000000000, 0.0000000000, 0.0000000000, 0.0000000000, 6.4247227010, 9.2152518165, 8.3084708895, 8.3746921159, 11.9418319129, 5.0000000000, 0.0592990333
          48, 0.0000000000, 0.0000000000, 0.0000000000, 0.0000000000, 0.0000000000, 0.0000000000, 0.0000000000, 0.0000000000, 0.0000000000, 0.0000000000, 6.4195521357, 9.2172573373, 8.3269091025, 8.3787590901, 11.9490561790, 5.0000000000, 0.0604215667
          49, 0.0000000000, 0.0000000000, 0.0000000000, 0.0000000000, 0.0000000000, 0.0000000000, 0.0000000000, 0.0000000000, 0.0000000000, 0.0000000000, 6.4485607925, 9.2396200369, 8.3599740865, 8.3918184435, 11.9616487966, 5.0000000000, 0.0615296333
          50, 0.0000000000, 0.0000000000, 0.0000000000, 0.0000000000, 0.0000000000, 0.0000000000, 0.0000000000, 0.0000000000, 0.0000000000, 0.0000000000, 6.4659735146, 9.2557717622, 8.3848800083, 8.4143946016, 11.9862901155, 5.0000000000, 0.0626303333
          51, 0.0000000000, 0.0000000000, 0.0000000000, 0.0000000000, 0.0000000000, 0.0000000000, 0.0000000000, 0.0000000000, 0.0000000000, 0.0000000000, 6.4531714896, 9.2605094857, 8.4064674002, 8.4377043392, 12.0011512024, 5.0000000000, 0.0636754833
          52, 0.0000000000, 0.0000000000, 0.0000000000, 0.0000000000, 0.0000000000, 0.0000000000, 0.0000000000, 0.0000000000, 0.0000000000, 0.0000000000, 6.4744975775, 9.2962593155, 8.4501989679, 8.4499993526, 12.0485480423, 5.0000000000, 0.0648673333
          53, 0.0000000000, 0.0000000000, 0.0000000000, 0.0000000000, 0.0000000000, 0.0000000000, 0.0000000000, 0.0000000000, 0.0000000000, 0.0000000000, 6.4946173803, 9.3089444580, 8.4697892975, 8.4600016598, 12.0588627165, 5.0000000000, 0.0660345333
          54, 0.0000000000, 0.0000000000, 0.0000000000, 0.0000000000, 0.0000000000, 0.0000000000, 0.0000000000, 0.0000000000, 0.0000000000, 0.0000000000, 6.5157264890, 9.3373926066, 8.4774341853, 8.4844262497, 12.0897078209, 5.0000000000, 0.0671940667
          55, 0.0000000000, 0.0000000000, 0.0000000000, 0.0000000000, 0.0000000000, 0.0000000000, 0.0000000000, 0.0000000000, 0.0000000000, 0.0000000000, 6.5461287669, 9.3662167445, 8.5252381118, 8.5311896090, 12.1317223524, 5.0000000000, 0.0683260500
          56, 0.0000000000, 0.0000000000, 0.0000000000, 0.0000000000, 0.0000000000, 0.0000000000, 0.0000000000, 0.0000000000, 0.0000000000, 0.0000000000, 6.5484816592, 9.3741658114, 8.5606731090, 8.5435092847, 12.1515640520, 5.0000000000, 0.0693705500
          57, 0.0000000000, 0.0000000000, 0.0000000000, 0.0000000000, 0.0000000000, 0.0000000000, 0.0000000000, 0.0000000000, 0.0000000000, 0.0000000000, 6.5866895537, 9.3938949422, 8.5577123488, 8.5756335266, 12.1596710357, 5.0000000000, 0.0703344333
          58, 0.0000000000, 0.0000000000, 0.0000000000, 0.0000000000, 0.0000000000, 0.0000000000, 0.0000000000, 0.0000000000, 0.0000000000, 0.0000000000, 6.6114070432, 9.4013681373, 8.5621519332, 8.5928548607, 12.1769379051, 5.0000000000, 0.0714565167
          59, 0.0000000000, 0.0000000000, 0.0000000000, 0.0000000000, 0.0000000000, 0.0000000000, 0.0000000000, 0.0000000000, 0.0000000000, 0.0000000000, 6.5678840341, 9.3883625877, 8.5666749750, 8.5890810217, 12.1494584303, 5.0000000000, 0.0726814667
          60, 0.0000000000, 0.0000000000, 0.0000000000, 0.0000000000, 0.0000000000, 0.0000000000, 0.0000000000, 0.0000000000, 0.0000000000, 0.0000000000, 6.5712135434, 9.4109750106, 8.5845925495, 8.5967483805, 12.1943518820, 5.0000000000, 0.0739501333
          61, 0.0000000000, 0.0000000000, 0.0000000000, 0.0000000000, 0.0000000000, 0.0000000000, 0.0000000000, 0.0000000000, 0.0000000000, 0.0000000000, 6.5902911336, 9.4331460079, 8.6027844693, 8.6134196542, 12.2259233220, 5.0000000000, 0.0751548333
          62, 0.0000000000, 0.0000000000, 0.0000000000, 0.0000000000, 0.0000000000, 0.0000000000, 0.0000000000, 0.0000000000, 0.0000000000, 0.0000000000, 6.6109654320, 9.4552916488, 8.6330163448, 8.6421134281, 12.2515917546, 5.0000000000, 0.0763611667
          63, 0.0000000000, 0.0000000000, 0.0000000000, 0.0000000000, 0.0000000000, 0.0000000000, 0.0000000000, 0.0000000000, 0.0000000000, 0.0000000000, 6.5984103836, 9.4497012085, 8.6766347957, 8.6460612104, 12.2486064858, 5.0000000000, 0.0775207500
          64, 0.0000000000, 0.0000000000, 0.0000000000, 0.0000000000, 0.0000000000, 0.0000000000, 0.0000000000, 0.0000000000, 0.0000000000, 0.0000000000, 6.6157552086, 9.4742787925, 8.6947549237, 8.6331435918, 12.2887092545, 5.0000000000, 0.0787303333
          65, 0.0000000000, 0.0000000000, 0.0000000000, 0.0000000000, 0.0000000000, 0.0000000000, 0.0000000000, 0.0000000000, 0.0000000000, 0.0000000000, 6.6372160894, 9.5002260898, 8.7080477454, 8.6689973085, 12.3119570124, 5.0000000000, 0.0799040000
          66, 0.0000000000, 0.0000000000, 0.0000000000, 0.0000000000, 0.0000000000, 0.0000000000, 0.0000000000, 0.0000000000, 0.0000000000, 0.0000000000, 6.6643851868, 9.5274557680, 8.7259938563, 8.6860233824, 12.3403628715, 5.0000000000, 0.0810444167
          67, 0.0000000000, 0.0000000000, 0.0000000000, 0.0000000000, 0.0000000000, 0.0000000000, 0.0000000000, 0.0000000000, 0.0000000000, 0.0000000000, 6.6613845820, 9.5204421852, 8.7232506703, 8.6948303336, 12.3255744403, 5.0000000000, 0.0821339833
          68, 0.0000000000, 0.0000000000, 0.0000000000, 0.0000000000, 0.0000000000, 0.0000000000, 0.0000000000, 0.0000000000, 0.0000000000, 0.0000000000, 6.6770983161, 9.5394096946, 8.7281732905, 8.7189304616, 12.3621825825, 5.0000000000, 0.0833721167
          69, 0.0000000000, 0.0000000000, 0.0000000000, 0.0000000000, 0.0000000000, 0.0000000000, 0.0000000000, 0.0000000000, 0.0000000000, 0.0000000000, 6.6876308536, 9.5517094942, 8.7496277758, 8.7491927517, 12.3542673017, 5.0000000000, 0.0844163000
          70, 0.0000000000, 0.0000000000, 0.0000000000, 0.0000000000, 0.0000000000, 0.0000000000, 0.0000000000, 0.0000000000, 0.0000000000, 0.0000000000, 6.7043933200, 9.5624370526, 8.7888416747, 8.7617830258, 12.3859325963, 5.0000000000, 0.0855531667
          71, 0.0000000000, 0.0000000000, 0.0000000000, 0.0000000000, 0.0000000000, 0.0000000000, 0.0000000000, 0.0000000000, 0.0000000000, 0.0000000000, 6.6968454628, 9.5645641039, 8.7852426455, 8.7849626201, 12.3866517439, 5.0000000000, 0.0866164833
          72, 0.0000000000, 0.0000000000, 0.0000000000, 0.0000000000, 0.0000000000, 0.0000000000, 0.0000000000, 0.0000000000, 0.0000000000, 0.0000000000, 6.6954124863, 9.5652822763, 8.7979888425, 8.7939051346, 12.4013636528, 5.0000000000, 0.0877540167
          73, 0.0000000000, 0.0000000000, 0.0000000000, 0.0000000000, 0.0000000000, 0.0000000000, 0.0000000000, 0.0000000000, 0.0000000000, 0.0000000000, 6.7136143341, 9.5903635603, 8.8086220291, 8.7883672054, 12.4364502547, 5.0000000000, 0.0888182167
          74, 0.0000000000, 0.0000000000, 0.0000000000, 0.0000000000, 0.0000000000, 0.0000000000, 0.0000000000, 0.0000000000, 0.0000000000, 0.0000000000, 6.7170950208, 9.5950872194, 8.8248523823, 8.8106690509, 12.4355319158, 5.0000000000, 0.0899482667
          75, 0.0000000000, 0.0000000000, 0.0000000000, 0.0000000000, 0.0000000000, 0.0000000000, 0.0000000000, 0.0000000000, 0.0000000000, 0.0000000000, 6.7350880369, 9.6156250234, 8.8405497719, 8.8297321692, 12.4693931995, 5.0000000000, 0.0911041333
          76, 0.0000000000, 0.0000000000, 0.0000000000, 0.0000000000, 0.0000000000, 0.0000000000, 0.0000000000, 0.0000000000, 0.0000000000, 0.0000000000, 6.7268245196, 9.6116498267, 8.8415152749, 8.8342118248, 12.4544098298, 5.0000000000, 0.0921685833
          77, 0.0000000000, 0.0000000000, 0.0000000000, 0.0000000000, 0.0000000000, 0.0000000000, 0.0000000000, 0.0000000000, 0.0000000000, 0.0000000000, 6.7736324032, 9.6594489863, 8.8646222208, 8.8797441041, 12.5297973878, 5.0000000000, 0.0932969500
          78, 0.0000000000, 0.0000000000, 0.0000000000, 0.0000000000, 0.0000000000, 0.0000000000, 0.0000000000, 0.0000000000, 0.0000000000, 0.0000000000, 6.7740304182, 9.6745417210, 8.9138422731, 8.9427155569, 12.5527505358, 5.0000000000, 0.0944045667
          79, 0.0000000000, 0.0000000000, 0.0000000000, 0.0000000000, 0.0000000000, 0.0000000000, 0.0000000000, 0.0000000000, 0.0000000000, 0.0000000000, 6.7982888352, 9.7084245154, 8.9597022471, 8.9830398657, 12.5835309795, 5.0000000000, 0.0955849833
          80, 0.0000000000, 0.0000000000, 0.0000000000, 0.0000000000, 0.0000000000, 0.0000000000, 0.0000000000, 0.0000000000, 0.0000000000, 0.0000000000, 6.8106865120, 9.7168842236, 8.9746770994, 8.9754806292, 12.5821988130, 5.0000000000, 0.0967083333
          81, 0.0000000000, 0.0000000000, 0.0000000000, 0.0000000000, 0.0000000000, 0.0000000000, 0.0000000000, 0.0000000000, 0.0000000000, 0.0000000000, 6.8287781101, 9.7149510459, 8.9759398540, 9.0138943346, 12.6015644353, 5.0000000000, 0.0978534833
          82, 0.0000000000, 0.0000000000, 0.0000000000, 0.0000000000, 0.0000000000, 0.0000000000, 0.0000000000, 0.0000000000, 0.0000000000, 0.0000000000, 6.8163907337, 9.7233242544, 9.0141442592, 9.0142434751, 12.6003962058, 5.0000000000, 0.0989914333
          83, 0.0000000000, 0.0000000000, 0.0000000000, 0.0000000000, 0.0000000000, 0.0000000000, 0.0000000000, 0.0000000000, 0.0000000000, 0.0000000000, 6.8279673347, 9.7447734396, 9.0117590988, 9.0413858517, 12.6192145514, 5.0000000000, 0.1000274333
          84, 0.0000000000, 0.0000000000, 0.0000000000, 0.0000000000, 0.0000000000, 0.0000000000, 0.0000000000, 0.0000000000, 0.0000000000, 0.0000000000, 6.8282475886, 9.7450682603, 9.0209137382, 9.0134359954, 12.6157139684, 5.0000000000, 0.1012163500
          85, 0.0000000000, 0.0000000000, 0.0000000000, 0.0000000000, 0.0000000000, 0.0000000000, 0.0000000000, 0.0000000000, 0.0000000000, 0.0000000000, 6.8458438786, 9.7631472828, 9.0573277953, 9.0468998450, 12.6545940317, 5.0000000000, 0.1022444833
          86, 0.0000000000, 0.0000000000, 0.0000000000, 0.0000000000, 0.0000000000, 0.0000000000, 0.0000000000, 0.0000000000, 0.0000000000, 0.0000000000, 6.8690443104, 9.7896350867, 9.0701235718, 9.0843869573, 12.6925226050, 5.0000000000, 0.1033574667
          87, 0.0000000000, 0.0000000000, 0.0000000000, 0.0000000000, 0.0000000000, 0.0000000000, 0.0000000000, 0.0000000000, 0.0000000000, 0.0000000000, 6.8931043882, 9.8038332108, 9.0936315711, 9.1344267119, 12.7068988474, 5.0000000000, 0.1045416667
          88, 0.0000000000, 0.0000000000, 0.0000000000, 0.0000000000, 0.0000000000, 0.0000000000, 0.0000000000, 0.0000000000, 0.0000000000, 0.0000000000, 6.9015005549, 9.8175375677, 9.1336681237, 9.1493352456, 12.7207910762, 5.0000000000, 0.1056374333
          89, 0.0000000000, 0.0000000000, 0.0000000000, 0.0000000000, 0.0000000000, 0.0000000000, 0.0000000000, 0.0000000000, 0.0000000000, 0.0000000000, 6.8918728380, 9.8233857438, 9.1318405677, 9.1610840174, 12.7424552826, 5.0000000000, 0.1066360167
          90, 0.0000000000, 0.0000000000, 0.0000000000, 0.0000000000, 0.0000000000, 0.0000000000, 0.0000000000, 0.0000000000, 0.0000000000, 0.0000000000, 6.8824774444, 9.8197276411, 9.1273102166, 9.1541686926, 12.7457159529, 5.0000000000, 0.1077697000
          91, 0.0000000000, 0.0000000000, 0.0000000000, 0.0000000000, 0.0000000000, 0.0000000000, 0.0000000000, 0.0000000000, 0.0000000000, 0.0000000000, 6.9308111870, 9.8570549251, 9.1699063471, 9.1964091184, 12.7750605770, 5.0000000000, 0.1088912333
          92, 0.0000000000, 0.0000000000, 0.0000000000, 0.0000000000, 0.0000000000, 0.0000000000, 0.0000000000, 0.0000000000, 0.0000000000, 0.0000000000, 6.9216605038, 9.8693439963, 9.1526996771, 9.1866373099, 12.7810092373, 5.0000000000, 0.1100341667
          93, 0.0000000000, 0.0000000000, 0.0000000000, 0.0000000000, 0.0000000000, 0.0000000000, 0.0000000000, 0.0000000000, 0.0000000000, 0.0000000000, 6.9406701072, 9.8856751078, 9.1831131212, 9.2044943217, 12.8066815582, 5.0000000000, 0.1110835500
          94, 0.0000000000, 0.0000000000, 0.0000000000, 0.0000000000, 0.0000000000, 0.0000000000, 0.0000000000, 0.0000000000, 0.0000000000, 0.0000000000, 6.9223730312, 9.8694835139, 9.1726092424, 9.2102074843, 12.7884395031, 5.0000000000, 0.1122065167
          95, 0.0000000000, 0.0000000000, 0.0000000000, 0.0000000000, 0.0000000000, 0.0000000000, 0.0000000000, 0.0000000000, 0.0000000000, 0.0000000000, 6.9365064770, 9.8842231119, 9.1780378949, 9.2119730398, 12.7963789870, 5.0000000000, 0.1133145333
          96, 0.0000000000, 0.0000000000, 0.0000000000, 0.0000000000, 0.0000000000, 0.0000000000, 0.0000000000, 0.0000000000, 0.0000000000, 0.0000000000, 6.9407649656, 9.8906359402, 9.1832501115, 9.2094963791, 12.8077643800, 5.0000000000, 0.1144414833
          97, 0.0000000000, 0.0000000000, 0.0000000000, 0.0000000000, 0.0000000000, 0.0000000000, 0.0000000000, 0.0000000000, 0.0000000000, 0.0000000000, 6.9803640132, 9.9351071237, 9.2224234740, 9.2318459797, 12.8674042437, 5.0000000000, 0.1155848833
          98, 0.0000000000, 0.0000000000, 0.0000000000, 0.0000000000, 0.0000000000, 0.0000000000, 0.0000000000, 0.0000000000, 0.0000000000, 0.0000000000, 7.0025423915, 9.9529220559, 9.2370199852, 9.2753390085, 12.8921355578, 5.0000000000, 0.1166900667
          99, 0.0000000000, 0.0000000000, 0.0000000000, 0.0000000000, 0.0000000000, 0.0000000000, 0.0000000000, 0.0000000000, 0.0000000000, 0.0000000000, 7.0029437997, 9.9633743705, 9.2363624315, 9.2719899234, 12.8962523560, 5.0000000000, 0.1179362000
         100, 0.0000000000, 0.0000000000, 0.0000000000, 0.0000000000, 0.0000000000, 0.0000000000, 0.0000000000, 0.0000000000, 0.0000000000, 0.0000000000, 7.0183318295, 9.9768950627, 9.2626487299, 9.2971924728, 12.9024952446, 5.0000000000, 0.1190683833
         101, 0.0000000000, 0.0000000000, 0.0000000000, 0.0000000000, 0.0000000000, 0.0000000000, 0.0000000000, 0.0000000000, 0.0000000000, 0.0000000000, 7.0333009298, 10.0117081387, 9.2811985675, 9.2979094176, 12.9446351280, 5.0000000000, 0.1201658667
         102, 0.0000000000, 0.0000000000, 0.0000000000, 0.0000000000, 0.0000000000, 0.0000000000, 0.0000000000, 0.0000000000, 0.0000000000, 0.0000000000, 7.0435941545, 10.0284600645, 9.2841756418, 9.3087442336, 12.9425694330, 5.0000000000, 0.1212501167
         103, 0.0000000000, 0.0000000000, 0.0000000000, 0.0000000000, 0.0000000000, 0.0000000000, 0.0000000000, 0.0000000000, 0.0000000000, 0.0000000000, 7.0485906630, 10.0282358705, 9.3107951621, 9.3206663274, 12.9512061367, 5.0000000000, 0.1223570333
         104, 0.0000000000, 0.0000000000, 0.0000000000, 0.0000000000, 0.0000000000, 0.0000000000, 0.0000000000, 0.0000000000, 0.0000000000, 0.0000000000, 7.0475507846, 10.0328939466, 9.3140627563, 9.3219540928, 12.9523284337, 5.0000000000, 0.1235690833
         105, 0.0000000000, 0.0000000000, 0.0000000000, 0.0000000000, 0.0000000000, 0.0000000000, 0.0000000000, 0.0000000000, 0.0000000000, 0.0000000000, 7.0311577513, 10.0230272735, 9.3141357764, 9.3271990557, 12.9515579431, 5.0000000000, 0.1247113000
         106, 0.0000000000, 0.0000000000, 0.0000000000, 0.0000000000, 0.0000000000, 0.0000000000, 0.0000000000, 0.0000000000, 0.0000000000, 0.0000000000, 7.0360843231, 10.0351893348, 9.3286388686, 9.3792905145, 12.9701764646, 5.0000000000, 0.1258464667
         107, 0.0000000000, 0.0000000000, 0.0000000000, 0.0000000000, 0.0000000000, 0.0000000000, 0.0000000000, 0.0000000000, 0.0000000000, 0.0000000000, 7.0744250380, 10.0663547912, 9.3663610537, 9.3999345884, 12.9965938265, 5.0000000000, 0.1269850167
         108, 0.0000000000, 0.0000000000, 0.0000000000, 0.0000000000, 0.0000000000, 0.0000000000, 0.0000000000, 0.0000000000, 0.0000000000, 0.0000000000, 7.0790495459, 10.0736571853, 9.3942595440, 9.4277419228, 13.0227380303, 5.0000000000, 0.1280689333
         109, 0.0000000000, 0.0000000000, 0.0000000000, 0.0000000000, 0.0000000000, 0.0000000000, 0.0000000000, 0.0000000000, 0.0000000000, 0.0000000000, 7.0839854080, 10.0835298323, 9.4033666371, 9.4505729020, 13.0538557441, 5.0000000000, 0.1292147667
         110, 0.0000000000, 0.0000000000, 0.0000000000, 0.0000000000, 0.0000000000, 0.0000000000, 0.0000000000, 0.0000000000, 0.0000000000, 0.0000000000, 7.0799340985, 10.0844027238, 9.4146342735, 9.4543145073, 13.0512795909, 5.0000000000, 0.1302787000
         111, 0.0000000000, 0.0000000000, 0.0000000000, 0.0000000000, 0.0000000000, 0.0000000000, 0.0000000000, 0.0000000000, 0.0000000000, 0.0000000000, 7.1011725322, 10.1002017245, 9.4279353088, 9.4636108097, 13.0609180316, 5.0000000000, 0.1313293000
         112, 0.0000000000, 0.0000000000, 0.0000000000, 0.0000000000, 0.0000000000, 0.0000000000, 0.0000000000, 0.0000000000, 0.0000000000, 0.0000000000, 7.1199260923, 10.1233650580, 9.4469232735, 9.5038865034, 13.0828887583, 5.0000000000, 0.1325172500
         113, 0.0000000000, 0.0000000000, 0.0000000000, 0.0000000000, 0.0000000000, 0.0000000000, 0.0000000000, 0.0000000000, 0.0000000000, 0.0000000000, 7.1548258719, 10.1464821448, 9.4823817735, 9.5147339436, 13.1283466382, 5.0000000000, 0.1335615667
         114, 0.0000000000, 0.0000000000, 0.0000000000, 0.0000000000, 0.0000000000, 0.0000000000, 0.0000000000, 0.0000000000, 0.0000000000, 0.0000000000, 7.1353361583, 10.1277735184, 9.5308275881, 9.5499463754, 13.1139407693, 5.0000000000, 0.1346561667
         115, 0.0000000000, 0.0000000000, 0.0000000000, 0.0000000000, 0.0000000000, 0.0000000000, 0.0000000000, 0.0000000000, 0.0000000000, 0.0000000000, 7.1237915221, 10.1363409700, 9.5097006408, 9.5453299652, 13.1379844130, 5.0000000000, 0.1358604833
         116, 0.0000000000, 0.0000000000, 0.0000000000, 0.0000000000, 0.0000000000, 0.0000000000, 0.0000000000, 0.0000000000, 0.0000000000, 0.0000000000, 7.1307384183, 10.1497104295, 9.5394952385, 9.5524933219, 13.1466767070, 5.0000000000, 0.1369293167