TITLE = "SU2 Simulation"
VARIABLES = "Iteration","CLift","CDrag","CSideForce","CMx","CMy","CMz","CFx","CFy","CFz","CL/CD","Res_Flow[0]","Res_Flow[1]","Res_Flow[2]","Res_Flow[3]","Res_Flow[4]","Linear_Solver_Iterations","Time(min)"
ZONE T= "Convergence history"
           0, 0.0000000000, 0.0000000000, 0.0000000000, 0.0000000000, 0.0000000000, 0.0000000000, 0.0000000000, 0.0000000000, 0.0000000000, 0.0000000000, -15.0297687106, -0.5227407987, -12.3529959347, -12.4164644427, 1.1742132845, 3.0000000000, 0.0001220187
           1, 0.0000000000, 0.0000000000, 0.0000000000, 0.0000000000, 0.0000000000, 0.0000000000, 0.0000000000, 0.0000000000, 0.0000000000, 0.0000000000, -4.4001385236, -0.5257009374, -3.3080322461, -3.3190559040, 1.2657477271, 3.0000000000, 0.0002605359
           2, 0.0000000000, 0.0000000000, 0.0000000000, 0.0000000000, 0.0000000000, 0.0000000000, 0.0000000000, 0.0000000000, 0.0000000000, 0.0000000000, -4.1047110184, -0.5293097534, -2.8362922654, -2.8468834687, 1.4170503589, 3.0000000000, 0.0003728509
           3, 0.0000000000, 0.0000000000, 0.0000000000, 0.0000000000, 0.0000000000, 0.0000000000, 0.0000000000, 0.0000000000, 0.0000000000, 0.0000000000, -3.9350964385, -0.5335548753, -2.5411130914, -2.5512734117, 1.5442547337, 3.0000000000, 0.0004872839
           4, 0.0000000000, 0.0000000000, 0.0000000000, 0.0000000000, 0.0000000000, 0.0000000000, 0.0000000000, 0.0000000000, 0.0000000000, 0.0000000000, -3.8175116406, -0.5384165105, -2.3255877572, -2.3353187345, 1.6442079115, 3.0000000000, 0.0006030202
           5, 0.0000000000, 0.0000000000, 0.0000000000, 0.0000000000, 0.0000000000, 0.0000000000, 0.0000000000, 0.0000000000, 0.0000000000, 0.0000000000, -3.7288365784, -0.5438674896, -2.1562942756, -2.1655968906, 1.7237320309, 3.0000000000, 0.0007296006
           6, 0.0000000000, 0.0000000000, 0.0000000000, 0.0000000000, 0.0000000000, 0.0000000000, 0.0000000000, 0.0000000000, 0.0000000000, 0.0000000000, -3.6587757362, -0.5498732551, -2.0174396878, -2.0263142690, 1.7882482645, 3.0000000000, 0.0008440693
           7, 0.0000000000, 0.0000000000, 0.0000000000, 0.0000000000, 0.0000000000, 0.0000000000, 0.0000000000, 0.0000000000, 0.0000000000, 0.0000000000, -3.6018399266, -0.5563918263, -1.9002511070, -1.9086973485, 1.8414137735, 3.0000000000, 0.0009594003
           8, 0.0000000000, 0.0000000000, 0.0000000000, 0.0000000000, 0.0000000000, 0.0000000000, 0.0000000000, 0.0000000000, 0.0000000000, 0.0000000000, -3.5547553213, -0.5633737858, -1.7993343291, -1.8073513466, 1.8856943232, 3.0000000000, 0.0010695537
           9, 0.0000000000, 0.0000000000, 0.0000000000, 0.0000000000, 0.0000000000, 0.0000000000, 0.0000000000, 0.0000000000, 0.0000000000, 0.0000000000, -3.5154129103, -0.5707623330, -1.7111301831, -1.7187165859, 1.9227978218, 3.0000000000, 0.0011890531
          10, 0.0000000000, 0.0000000000, 0.0000000000, 0.0000000000, 0.0000000000, 0.0000000000, 0.0000000000, 0.0000000000, 0.0000000000, 0.0000000000, -3.4823752717, -0.5784934675, -1.6331645094, -1.6403184810, 1.9539434463, 3.0000000000, 0.0013118704
          11, 0.0000000000, 0.0000000000, 0.0000000000, 0.0000000000, 0.0000000000, 0.0000000000, 0.0000000000, 0.0000000000, 0.0000000000, 0.0000000000, -3.4546196246, -0.5864963644, -1.5636466796, -1.5703660641, 1.9800259507, 3.0000000000, 0.0014232357
          12, 0.0000000000, 0.0000000000, 0.0000000000, 0.0000000000, 0.0000000000, 0.0000000000, 0.0000000000, 0.0000000000, 0.0000000000, 0.0000000000, -3.4313930868, -0.5946940119, -1.5012384371, -1.5075208299, 2.0017180661, 3.0000000000, 0.0015323202
          13, 0.0000000000, 0.0000000000, 0.0000000000, 0.0000000000, 0.0000000000, 0.0000000000, 0.0000000000, 0.0000000000, 0.0000000000, 0.0000000000, -3.4121259763, -0.6030041758, -1.4449129817, -1.4507558253, 2.0195362235, 3.0000000000, 0.0016518871
          14, 0.0000000000, 0.0000000000, 0.0000000000, 0.0000000000, 0.0000000000, 0.0000000000, 0.0000000000, 0.0000000000, 0.0000000000, 0.0000000000, -3.3963772183, -0.6113407450, -1.3938650168, -1.3992657001, 2.0338840459, 3.0000000000, 0.0017797510
          15, 0.0000000000, 0.0000000000, 0.0000000000, 0.0000000000, 0.0000000000, 0.0000000000, 0.0000000000, 0.0000000000, 0.0000000000, 0.0000000000, -3.3837984862, -0.6196154918, -1.3474510996, -1.3524070632, 2.0450819937, 3.0000000000, 0.0018956701
          16, 0.0000000000, 0.0000000000, 0.0000000000, 0.0000000000, 0.0000000000, 0.0000000000, 0.0000000000, 0.0000000000, 0.0000000000, 0.0000000000, -3.3741097562, -0.6277402445, -1.3051488015, -1.3096576479, 2.0533881645, 3.0000000000, 0.0020098686
          17, 0.0000000000, 0.0000000000, 0.0000000000, 0.0000000000, 0.0000000000, 0.0000000000, 0.0000000000, 0.0000000000, 0.0000000000, 0.0000000000, -3.3670820555, -0.6356294249, -1.2665279761, -1.2705875876, 2.0590133160, 3.0000000000, 0.0021212339
          18, 0.0000000000, 0.0000000000, 0.0000000000, 0.0000000000, 0.0000000000, 0.0000000000, 0.0000000000, 0.0000000000, 0.0000000000, 0.0000000000, -3.3625248639, -0.6432028509, -1.2312300490, -1.2348387088, 2.0621320609, 3.0000000000, 0.0022489349
          19, 0.0000000000, 0.0000000000, 0.0000000000, 0.0000000000, 0.0000000000, 0.0000000000, 0.0000000000, 0.0000000000, 0.0000000000, 0.0000000000, -3.3602765692, -0.6503886445, -1.1989527925, -1.2021093138, 2.0628915118, 3.0000000000, 0.0023611347
          20, 0.0000000000, 0.0000000000, 0.0000000000, 0.0000000000, 0.0000000000, 0.0000000000, 0.0000000000, 0.0000000000, 0.0000000000, 0.0000000000, -3.3601969268, -0.6571260395, -1.1694389140, -1.1721427828, 2.0614182605, 3.0000000000, 0.0024755359
          21, 0.0000000000, 0.0000000000, 0.0000000000, 0.0000000000, 0.0000000000, 0.0000000000, 0.0000000000, 0.0000000000, 0.0000000000, 0.0000000000, -3.3621608229, -0.6633678696, -1.1424673774, -1.1447188969, 2.0578242960, 3.0000000000, 0.0025911172
          22, 0.0000000000, 0.0000000000, 0.0000000000, 0.0000000000, 0.0000000000, 0.0000000000, 0.0000000000, 0.0000000000, 0.0000000000, 0.0000000000, -3.3660528363, -0.6690824895, -1.1178466907, -1.1196471395, 2.0522123364, 3.0000000000, 0.0027134180
          23, 0.0000000000, 0.0000000000, 0.0000000000, 0.0000000000, 0.0000000000, 0.0000000000, 0.0000000000, 0.0000000000, 0.0000000000, 0.0000000000, -3.3717620797, -0.6742549537, -1.0954096563, -1.0967614501, 2.0446811392, 3.0000000000, 0.0028391004
          24, 0.0000000000, 0.0000000000, 0.0000000000, 0.0000000000, 0.0000000000, 0.0000000000, 0.0000000000, 0.0000000000, 0.0000000000, 0.0000000000, -3.3791773373, -0.6788872960, -1.0750092000, -1.0759160650, 2.0353307205, 3.0000000000, 0.0029618502
          25, 0.0000000000, 0.0000000000, 0.0000000000, 0.0000000000, 0.0000000000, 0.0000000000, 0.0000000000, 0.0000000000, 0.0000000000, 0.0000000000, -3.3881819509, -0.6829978828, -1.0565150305, -1.0569821839, 2.0242681921, 3.0000000000, 0.0030817191
          26, 0.0000000000, 0.0000000000, 0.0000000000, 0.0000000000, 0.0000000000, 0.0000000000, 0.0000000000, 0.0000000000, 0.0000000000, 0.0000000000, -3.3986484423, -0.6866199237, -1.0398109487, -1.0398452912, 2.0116142765, 3.0000000000, 0.0032102346
          27, 0.0000000000, 0.0000000000, 0.0000000000, 0.0000000000, 0.0000000000, 0.0000000000, 0.0000000000, 0.0000000000, 0.0000000000, 0.0000000000, -3.4104327483, -0.6897992551, -1.0247926600, -1.0244029732, 1.9975107595, 3.0000000000, 0.0033330838
          28, 0.0000000000, 0.0000000000, 0.0000000000, 0.0000000000, 0.0000000000, 0.0000000000, 0.0000000000, 0.0000000000, 0.0000000000, 0.0000000000, -3.4233680675, -0.6925915650, -1.0113659265, -1.0105630827, 1.9821290350, 3.0000000000, 0.0034496665
          29, 0.0000000000, 0.0000000000, 0.0000000000, 0.0000000000, 0.0000000000, 0.0000000000, 0.0000000000, 0.0000000000, 0.0000000000, 0.0000000000, -3.4372586807, -0.6950594259, -0.9994450802, -0.9982422714, 1.9656793752, 3.0000000000, 0.0035688678
          30, 0.0000000000, 0.0000000000, 0.0000000000, 0.0000000000, 0.0000000000, 0.0000000000, 0.0000000000, 0.0000000000, 0.0000000000, 0.0000000000, -3.4518741254, -0.6972691400, -0.9889517259, -0.9873646582, 1.9484205999, 3.0000000000, 0.0036891023
          31, 0.0000000000, 0.0000000000, 0.0000000000, 0.0000000000, 0.0000000000, 0.0000000000, 0.0000000000, 0.0000000000, 0.0000000000, 0.0000000000, -3.4669445570, -0.6992878584, -0.9798137332, -0.9778608435, 1.9306689783, 3.0000000000, 0.0038138866
          32, 0.0000000000, 0.0000000000, 0.0000000000, 0.0000000000, 0.0000000000, 0.0000000000, 0.0000000000, 0.0000000000, 0.0000000000, 0.0000000000, -3.4821587918, -0.7011809433, -0.9719643466, -0.9696670289, 1.9128041323, 3.0000000000, 0.0039325198
          33, 0.0000000000, 0.0000000000, 0.0000000000, 0.0000000000, 0.0000000000, 0.0000000000, 0.0000000000, 0.0000000000, 0.0000000000, 0.0000000000, -3.4971666979, -0.7030096878, -0.9653414194, -0.9627242262, 1.8952689865, 3.0000000000, 0.0040417035
          34, 0.0000000000, 0.0000000000, 0.0000000000, 0.0000000000, 0.0000000000, 0.0000000000, 0.0000000000, 0.0000000000, 0.0000000000, 0.0000000000, -3.5115879528, -0.7048294989, -0.9598867898, -0.9569776349, 1.8785598067, 3.0000000000, 0.0041569193
          35, 0.0000000000, 0.0000000000, 0.0000000000, 0.0000000000, 0.0000000000, 0.0000000000, 0.0000000000, 0.0000000000, 0.0000000000, 0.0000000000, -3.5250288295, -0.7066885314, -0.9555457570, -0.9523760910, 1.8632025110, 3.0000000000, 0.0042852004
          36, 0.0000000000, 0.0000000000, 0.0000000000, 0.0000000000, 0.0000000000, 0.0000000000, 0.0000000000, 0.0000000000, 0.0000000000, 0.0000000000, -3.5371075260, -0.7086266583, -0.9522665768, -0.9488715326, 1.8497133141, 3.0000000000, 0.0044098020
          37, 0.0000000000, 0.0000000000, 0.0000000000, 0.0000000000, 0.0000000000, 0.0000000000, 0.0000000000, 0.0000000000, 0.0000000000, 0.0000000000, -3.5474861037, -0.7106749508, -0.9500002132, -0.9464187340, 1.8385464661, 3.0000000000, 0.0045234203
          38, 0.0000000000, 0.0000000000, 0.0000000000, 0.0000000000, 0.0000000000, 0.0000000000, 0.0000000000, 0.0000000000, 0.0000000000, 0.0000000000, -3.5559049253, -0.7128552991, -0.9486999152, -0.9449748408, 1.8300370329, 3.0000000000, 0.0046351512
          39, 0.0000000000, 0.0000000000, 0.0000000000, 0.0000000000, 0.0000000000, 0.0000000000, 0.0000000000, 0.0000000000, 0.0000000000, 0.0000000000, -3.5622125436, -0.7151804428, -0.9483210950, -0.9444991758, 1.8243527210, 3.0000000000, 0.0047584852
          40, 0.0000000000, 0.0000000000, 0.0000000000, 0.0000000000, 0.0000000000, 0.0000000000, 0.0000000000, 0.0000000000, 0.0000000000, 0.0000000000, -3.5663841676, -0.7176541272, -0.9488210826, -0.9449529667, 1.8214684255, 3.0000000000, 0.0048809687
          41, 0.0000000000, 0.0000000000, 0.0000000000, 0.0000000000, 0.0000000000, 0.0000000000, 0.0000000000, 0.0000000000, 0.0000000000, 0.0000000000, -3.5685236735, -0.7202716768, -0.9501595051, -0.9462994585, 1.8211720037, 3.0000000000, 0.0050015171
          42, 0.0000000000, 0.0000000000, 0.0000000000, 0.0000000000, 0.0000000000, 0.0000000000, 0.0000000000, 0.0000000000, 0.0000000000, 0.0000000000, -3.5688481699, -0.7230201845, -0.9522971350, -0.9485031978, 1.8230998692, 3.0000000000, 0.0051103512
          43, 0.0000000000, 0.0000000000, 0.0000000000, 0.0000000000, 0.0000000000, 0.0000000000, 0.0000000000, 0.0000000000, 0.0000000000, 0.0000000000, -3.5676600825, -0.7258794480, -0.9551966551, -0.9515302801, 1.8267901150, 3.0000000000, 0.0052292864
          44, 0.0000000000, 0.0000000000, 0.0000000000, 0.0000000000, 0.0000000000, 0.0000000000, 0.0000000000, 0.0000000000, 0.0000000000, 0.0000000000, -3.5653130058, -0.7288228582, -0.9588226868, -0.9553483327, 1.8317394548, 3.0000000000, 0.0053569357
          45, 0.0000000000, 0.0000000000, 0.0000000000, 0.0000000000, 0.0000000000, 0.0000000000, 0.0000000000, 0.0000000000, 0.0000000000, 0.0000000000, -3.5621777844, -0.7318183276, -0.9631417226, -0.9599263842, 1.8374526179, 3.0000000000, 0.0054731687
          46, 0.0000000000, 0.0000000000, 0.0000000000, 0.0000000000, 0.0000000000, 0.0000000000, 0.0000000000, 0.0000000000, 0.0000000000, 0.0000000000, -3.5586148862, -0.7348295692, -0.9681222839, -0.9652350303, 1.8434767007, 3.0000000000, 0.0055905700
          47, 0.0000000000, 0.0000000000, 0.0000000000, 0.0000000000, 0.0000000000, 0.0000000000, 0.0000000000, 0.0000000000, 0.0000000000, 0.0000000000, -3.5549550631, -0.7378172821, -0.9737349649, -0.9712462645, 1.8494201178, 3.0000000000, 0.0057052016
          48, 0.0000000000, 0.0000000000, 0.0000000000, 0.0000000000, 0.0000000000, 0.0000000000, 0.0000000000, 0.0000000000, 0.0000000000, 0.0000000000, -3.5514879408, -0.7407406773, -0.9799528063, -0.9779337832, 1.8549596235, 3.0000000000, 0.0058322350
          49, 0.0000000000, 0.0000000000, 0.0000000000, 0.0000000000, 0.0000000000, 0.0000000000, 0.0000000000, 0.0000000000, 0.0000000000, 0.0000000000, -3.5484576379, -0.7435588216, -0.9867511409, -0.9852727475, 1.8598384388, 3.0000000000, 0.0059456031
          50, 0.0000000000, 0.0000000000, 0.0000000000, 0.0000000000, 0.0000000000, 0.0000000000, 0.0000000000, 0.0000000000, 0.0000000000, 0.0000000000, -3.5460626377, -0.7462324467, -0.9941081290, -0.9932401814, 1.8638604807, 3.0000000000, 0.0060599844
          51, 0.0000000000, 0.0000000000, 0.0000000000, 0.0000000000, 0.0000000000, 0.0000000000, 0.0000000000, 0.0000000000, 0.0000000000, 0.0000000000, -3.5444590433, -0.7487253315, -1.0020048929, -1.0018152974, 1.8668819732, 3.0000000000, 0.0061816017
          52, 0.0000000000, 0.0000000000, 0.0000000000, 0.0000000000, 0.0000000000, 0.0000000000, 0.0000000000, 0.0000000000, 0.0000000000, 0.0000000000, -3.5437649222, -0.7510055840, -1.0104255899, -1.0109790373, 1.8688030115, 3.0000000000, 0.0063060363
          53, 0.0000000000, 0.0000000000, 0.0000000000, 0.0000000000, 0.0000000000, 0.0000000000, 0.0000000000, 0.0000000000, 0.0000000000, 0.0000000000, -3.5440647586, -0.7530470726, -1.0193569096, -1.0207142180, 1.8695605104, 3.0000000000, 0.0064236522
          54, 0.0000000000, 0.0000000000, 0.0000000000, 0.0000000000, 0.0000000000, 0.0000000000, 0.0000000000, 0.0000000000, 0.0000000000, 0.0000000000, -3.5454138620, -0.7548301490, -1.0287874086, -1.0310052875, 1.8691218805, 3.0000000000, 0.0065383355
          55, 0.0000000000, 0.0000000000, 0.0000000000, 0.0000000000, 0.0000000000, 0.0000000000, 0.0000000000, 0.0000000000, 0.0000000000, 0.0000000000, -3.5478416663, -0.7563431317, -1.0387093015, -1.0418389814, 1.8674809867, 3.0000000000, 0.0066533168
          56, 0.0000000000, 0.0000000000, 0.0000000000, 0.0000000000, 0.0000000000, 0.0000000000, 0.0000000000, 0.0000000000, 0.0000000000, 0.0000000000, -3.5513546069, -0.7575824169, -1.0491173379, -1.0532038359, 1.8646545617, 3.0000000000, 0.0067726334
          57, 0.0000000000, 0.0000000000, 0.0000000000, 0.0000000000, 0.0000000000, 0.0000000000, 0.0000000000, 0.0000000000, 0.0000000000, 0.0000000000, -3.5559379422, -0.7585525816, -1.0600084561, -1.0650899780, 1.8606801790, 3.0000000000, 0.0068984509
          58, 0.0000000000, 0.0000000000, 0.0000000000, 0.0000000000, 0.0000000000, 0.0000000000, 0.0000000000, 0.0000000000, 0.0000000000, 0.0000000000, -3.5615568025, -0.7592660946, -1.0713812657, -1.0774887213, 1.8556151775, 3.0000000000, 0.0070179502
          59, 0.0000000000, 0.0000000000, 0.0000000000, 0.0000000000, 0.0000000000, 0.0000000000, 0.0000000000, 0.0000000000, 0.0000000000, 0.0000000000, -3.5681566431, -0.7597428684, -1.0832353344, -1.0903920607, 1.8495362837, 3.0000000000, 0.0071328839
          60, 0.0000000000, 0.0000000000, 0.0000000000, 0.0000000000, 0.0000000000, 0.0000000000, 0.0000000000, 0.0000000000, 0.0000000000, 0.0000000000, -3.5756627897, -0.7600088168, -1.0955702112, -1.1037916816, 1.8425401150, 3.0000000000, 0.0072479010
          61, 0.0000000000, 0.0000000000, 0.0000000000, 0.0000000000, 0.0000000000, 0.0000000000, 0.0000000000, 0.0000000000, 0.0000000000, 0.0000000000, -3.5839797871, -0.7600952677, -1.1083843395, -1.1176781813, 1.8347438334, 3.0000000000, 0.0073758364
          62, 0.0000000000, 0.0000000000, 0.0000000000, 0.0000000000, 0.0000000000, 0.0000000000, 0.0000000000, 0.0000000000, 0.0000000000, 0.0000000000, -3.5929905796, -0.7600376213, -1.1216736176, -1.1320397160, 1.8262857702, 3.0000000000, 0.0074944536
          63, 0.0000000000, 0.0000000000, 0.0000000000, 0.0000000000, 0.0000000000, 0.0000000000, 0.0000000000, 0.0000000000, 0.0000000000, 0.0000000000, -3.6025558881, -0.7598738683, -1.1354295382, -1.1468600437, 1.8173255923, 3.0000000000, 0.0076046348
          64, 0.0000000000, 0.0000000000, 0.0000000000, 0.0000000000, 0.0000000000, 0.0000000000, 0.0000000000, 0.0000000000, 0.0000000000, 0.0000000000, -3.6125141100, -0.7596433974, -1.1496371163, -1.1621166689, 1.8080436802, 3.0000000000, 0.0077172836
          65, 0.0000000000, 0.0000000000, 0.0000000000, 0.0000000000, 0.0000000000, 0.0000000000, 0.0000000000, 0.0000000000, 0.0000000000, 0.0000000000, -3.6226823759, -0.7593857009, -1.1642721219, -1.1777781969, 1.7986389654, 3.0000000000, 0.0078418851
          66, 0.0000000000, 0.0000000000, 0.0000000000, 0.0000000000, 0.0000000000, 0.0000000000, 0.0000000000, 0.0000000000, 0.0000000000, 0.0000000000, -3.6328591658, -0.7591392080, -1.1792982377, -1.1938008254, 1.7893248768, 3.0000000000, 0.0079607010
          67, 0.0000000000, 0.0000000000, 0.0000000000, 0.0000000000, 0.0000000000, 0.0000000000, 0.0000000000, 0.0000000000, 0.0000000000, 0.0000000000, -3.6428292379, -0.7589402582, -1.1946631805, -1.2101247420, 1.7803227919, 3.0000000000, 0.0080825170
          68, 0.0000000000, 0.0000000000, 0.0000000000, 0.0000000000, 0.0000000000, 0.0000000000, 0.0000000000, 0.0000000000, 0.0000000000, 0.0000000000, -3.6523709516, -0.7588231537, -1.2102952111, -1.2266700457, 1.7718530605, 3.0000000000, 0.0081980348
          69, 0.0000000000, 0.0000000000, 0.0000000000, 0.0000000000, 0.0000000000, 0.0000000000, 0.0000000000, 0.0000000000, 0.0000000000, 0.0000000000, -3.6612665308, -0.7588182706, -1.2260980224, -1.2433310891, 1.7641233564, 3.0000000000, 0.0083255370
          70, 0.0000000000, 0.0000000000, 0.0000000000, 0.0000000000, 0.0000000000, 0.0000000000, 0.0000000000, 0.0000000000, 0.0000000000, 0.0000000000, -3.6693143002, -0.7589502363, -1.2419461160, -1.2599717296, 1.7573160292, 3.0000000000, 0.0084429860
          71, 0.0000000000, 0.0000000000, 0.0000000000, 0.0000000000, 0.0000000000, 0.0000000000, 0.0000000000, 0.0000000000, 0.0000000000, 0.0000000000, -3.6763418826, -0.7592414670, -1.2576814440, -1.2764219846, 1.7515753353, 3.0000000000, 0.0085619370
          72, 0.0000000000, 0.0000000000, 0.0000000000, 0.0000000000, 0.0000000000, 0.0000000000, 0.0000000000, 0.0000000000, 0.0000000000, 0.0000000000, -3.6822194460, -0.7597078570, -1.2731086615, -1.2924706048, 1.7469961228, 3.0000000000, 0.0086771170
          73, 0.0000000000, 0.0000000000, 0.0000000000, 0.0000000000, 0.0000000000, 0.0000000000, 0.0000000000, 0.0000000000, 0.0000000000, 0.0000000000, -3.6868698344, -0.7603607360, -1.2879945286, -1.3078654269, 1.7436167404, 3.0000000000, 0.0087944190
          74, 0.0000000000, 0.0000000000, 0.0000000000, 0.0000000000, 0.0000000000, 0.0000000000, 0.0000000000, 0.0000000000, 0.0000000000, 0.0000000000, -3.6902747745, -0.7612071513, -1.3020698314, -1.3223158677, 1.7414165754, 3.0000000000, 0.0089206696
          75, 0.0000000000, 0.0000000000, 0.0000000000, 0.0000000000, 0.0000000000, 0.0000000000, 0.0000000000, 0.0000000000, 0.0000000000, 0.0000000000, -3.6924757707, -0.7622494925, -1.3150359894, -1.3355000091, 1.7403190055, 3.0000000000, 0.0090326866
          76, 0.0000000000, 0.0000000000, 0.0000000000, 0.0000000000, 0.0000000000, 0.0000000000, 0.0000000000, 0.0000000000, 0.0000000000, 0.0000000000, -3.6935692707, -0.7634854748, -1.3265772594, -1.3470785319, 1.7401994017, 3.0000000000, 0.0091527025
          77, 0.0000000000, 0.0000000000, 0.0000000000, 0.0000000000, 0.0000000000, 0.0000000000, 0.0000000000, 0.0000000000, 0.0000000000, 0.0000000000, -3.6936972442, -0.7649085706, -1.3363802680, -1.3567170408, 1.7408965205, 3.0000000000, 0.0092654665
          78, 0.0000000000, 0.0000000000, 0.0000000000, 0.0000000000, 0.0000000000, 0.0000000000, 0.0000000000, 0.0000000000, 0.0000000000, 0.0000000000, -3.6930346455, -0.7665082277, -1.3441585454, -1.3641141282, 1.7422256437, 3.0000000000, 0.0093917688
          79, 0.0000000000, 0.0000000000, 0.0000000000, 0.0000000000, 0.0000000000, 0.0000000000, 0.0000000000, 0.0000000000, 0.0000000000, 0.0000000000, -3.6917758243, -0.7682702628, -1.3496800921, -1.3690324059, 1.7439915411, 3.0000000000, 0.0095068693
          80, 0.0000000000, 0.0000000000, 0.0000000000, 0.0000000000, 0.0000000000, 0.0000000000, 0.0000000000, 0.0000000000, 0.0000000000, 0.0000000000, -3.6901216291, -0.7701773477, -1.3527932295, -1.3713268463, 1.7459998883, 3.0000000000, 0.0096281846
          81, 0.0000000000, 0.0000000000, 0.0000000000, 0.0000000000, 0.0000000000, 0.0000000000, 0.0000000000, 0.0000000000, 0.0000000000, 0.0000000000, -3.6882684159, -0.7722091829, -1.3534448910, -1.3709637106, 1.7480663666, 3.0000000000, 0.0097482363
          82, 0.0000000000, 0.0000000000, 0.0000000000, 0.0000000000, 0.0000000000, 0.0000000000, 0.0000000000, 0.0000000000, 0.0000000000, 0.0000000000, -3.6863996796, -0.7743436861, -1.3516885942, -1.3680268137, 1.7500231121, 3.0000000000, 0.0098726869
          83, 0.0000000000, 0.0000000000, 0.0000000000, 0.0000000000, 0.0000000000, 0.0000000000, 0.0000000000, 0.0000000000, 0.0000000000, 0.0000000000, -3.6846803253, -0.7765569350, -1.3476776221, -1.3627069448, 1.7517227765, 3.0000000000, 0.0099944671
          84, 0.0000000000, 0.0000000000, 0.0000000000, 0.0000000000, 0.0000000000, 0.0000000000, 0.0000000000, 0.0000000000, 0.0000000000, 0.0000000000, -3.6832533143, -0.7788241213, -1.3416474746, -1.3552796895, 1.7530405574, 3.0000000000, 0.0101095359
          85, 0.0000000000, 0.0000000000, 0.0000000000, 0.0000000000, 0.0000000000, 0.0000000000, 0.0000000000, 0.0000000000, 0.0000000000, 0.0000000000, -3.6822381753, -0.7811202505, -1.3338902072, -1.3460754107, 1.7538747489, 3.0000000000, 0.0102221370
          86, 0.0000000000, 0.0000000000, 0.0000000000, 0.0000000000, 0.0000000000, 0.0000000000, 0.0000000000, 0.0000000000, 0.0000000000, 0.0000000000, -3.6817310291, -0.7834210191, -1.3247273818, -1.3354488212, 1.7541461884, 3.0000000000, 0.0103452365
          87, 0.0000000000, 0.0000000000, 0.0000000000, 0.0000000000, 0.0000000000, 0.0000000000, 0.0000000000, 0.0000000000, 0.0000000000, 0.0000000000, -3.6818049982, -0.7857021463, -1.3144840133, -1.3237514798, 1.7537975131, 3.0000000000, 0.0104691188
          88, 0.0000000000, 0.0000000000, 0.0000000000, 0.0000000000, 0.0000000000, 0.0000000000, 0.0000000000, 0.0000000000, 0.0000000000, 0.0000000000, -3.6825117255, -0.7879416235, -1.3034697395, -1.3113125763, 1.7527915669, 3.0000000000, 0.0105869174
          89, 0.0000000000, 0.0000000000, 0.0000000000, 0.0000000000, 0.0000000000, 0.0000000000, 0.0000000000, 0.0000000000, 0.0000000000, 0.0000000000, -3.6838826336, -0.7901197233, -1.2919652306, -1.2984260357, 1.7511101486, 3.0000000000, 0.0107014338
          90, 0.0000000000, 0.0000000000, 0.0000000000, 0.0000000000, 0.0000000000, 0.0000000000, 0.0000000000, 0.0000000000, 0.0000000000, 0.0000000000, -3.6859303715, -0.7922195562, -1.2802151979, -1.2853449377, 1.7487526675, 3.0000000000, 0.0108211199
          91, 0.0000000000, 0.0000000000, 0.0000000000, 0.0000000000, 0.0000000000, 0.0000000000, 0.0000000000, 0.0000000000, 0.0000000000, 0.0000000000, -3.6886500524, -0.7942275055, -1.2684260048, -1.2722804171, 1.7457350018, 3.0000000000, 0.0109423677
          92, 0.0000000000, 0.0000000000, 0.0000000000, 0.0000000000, 0.0000000000, 0.0000000000, 0.0000000000, 0.0000000000, 0.0000000000, 0.0000000000, -3.6920203677, -0.7961335615, -1.2567667176, -1.2594039480, 1.7420884685, 3.0000000000, 0.0110629837
          93, 0.0000000000, 0.0000000000, 0.0000000000, 0.0000000000, 0.0000000000, 0.0000000000, 0.0000000000, 0.0000000000, 0.0000000000, 0.0000000000, -3.6960045645, -0.7979315524, -1.2453722120, -1.2468514308, 1.7378588738, 3.0000000000, 0.0111743530
          94, 0.0000000000, 0.0000000000, 0.0000000000, 0.0000000000, 0.0000000000, 0.0000000000, 0.0000000000, 0.0000000000, 0.0000000000, 0.0000000000, -3.7005513500, -0.7996191914, -1.2343472688, -1.2347280057, 1.7331055900, 3.0000000000, 0.0112849196
          95, 0.0000000000, 0.0000000000, 0.0000000000, 0.0000000000, 0.0000000000, 0.0000000000, 0.0000000000, 0.0000000000, 0.0000000000, 0.0000000000, -3.7055957862, -0.8011979056, -1.2237709050, -1.2231128584, 1.7279005838, 3.0000000000, 0.0114105344
          96, 0.0000000000, 0.0000000000, 0.0000000000, 0.0000000000, 0.0000000000, 0.0000000000, 0.0000000000, 0.0000000000, 0.0000000000, 0.0000000000, -3.7110603395, -0.8026727958, -1.2137007435, -1.2120638943, 1.7223271171, 3.0000000000, 0.0115278999
          97, 0.0000000000, 0.0000000000, 0.0000000000, 0.0000000000, 0.0000000000, 0.0000000000, 0.0000000000, 0.0000000000, 0.0000000000, 0.0000000000, -3.7168561942, -0.8040523202, -1.2041769273, -1.2016217706, 1.7164781728, 3.0000000000, 0.0116425196
          98, 0.0000000000, 0.0000000000, 0.0000000000, 0.0000000000, 0.0000000000, 0.0000000000, 0.0000000000, 0.0000000000, 0.0000000000, 0.0000000000, -3.7228849470, -0.8053475550, -1.1952252732, -1.1918132236, 1.7104545158, 3.0000000000, 0.0117573341
          99, 0.0000000000, 0.0000000000, 0.0000000000, 0.0000000000, 0.0000000000, 0.0000000000, 0.0000000000, 0.0000000000, 0.0000000000, 0.0000000000, -3.7290408338, -0.8065720350, -1.1868604437, -1.1826540727, 1.7043619948, 3.0000000000, 0.0118767023
         100, 0.0000000000, 0.0000000000, 0.0000000000, 0.0000000000, 0.0000000000, 0.0000000000, 0.0000000000, 0.0000000000, 0.0000000000, 0.0000000000, -3.7352135705, -0.8077410583, -1.1790882816, -1.1741515469, 1.6983083889, 3.0000000000, 0.0119995673
         101, 0.0000000000, 0.0000000000, 0.0000000000, 0.0000000000, 0.0000000000, 0.0000000000, 0.0000000000, 0.0000000000, 0.0000000000, 0.0000000000, -3.7412918550, -0.8088711158, -1.1719078990, -1.1663062546, 1.6923996268, 3.0000000000, 0.0121112347
         102, 0.0000000000, 0.0000000000, 0.0000000000, 0.0000000000, 0.0000000000, 0.0000000000, 0.0000000000, 0.0000000000, 0.0000000000, 0.0000000000, -3.7471675737, -0.8099795765, -1.1653139912, -1.1591139762, 1.6867354174, 3.0000000000, 0.0122274001
         103, 0.0000000000, 0.0000000000, 0.0000000000, 0.0000000000, 0.0000000000, 0.0000000000, 0.0000000000, 0.0000000000, 0.0000000000, 0.0000000000, -3.7527397805, -0.8110828258, -1.1592956488, -1.1525658202, 1.6814054879, 3.0000000000, 0.0123456359
         104, 0.0000000000, 0.0000000000, 0.0000000000, 0.0000000000, 0.0000000000, 0.0000000000, 0.0000000000, 0.0000000000, 0.0000000000, 0.0000000000, -3.7579199113, -0.8121971196, -1.1538402934, -1.1466504908, 1.6764845363, 3.0000000000, 0.0124690851
         105, 0.0000000000, 0.0000000000, 0.0000000000, 0.0000000000, 0.0000000000, 0.0000000000, 0.0000000000, 0.0000000000, 0.0000000000, 0.0000000000, -3.7626360181, -0.8133375208, -1.1489335332, -1.1413545056, 1.6720286805, 3.0000000000, 0.0125836690
         106, 0.0000000000, 0.0000000000, 0.0000000000, 0.0000000000, 0.0000000000, 0.0000000000, 0.0000000000, 0.0000000000, 0.0000000000, 0.0000000000, -3.7668365655, -0.8145174475, -1.1445599054, -1.1366629020, 1.6680725085, 3.0000000000, 0.0127000848
         107, 0.0000000000, 0.0000000000, 0.0000000000, 0.0000000000, 0.0000000000, 0.0000000000, 0.0000000000, 0.0000000000, 0.0000000000, 0.0000000000, -3.7704931851, -0.8157482775, -1.1407034800, -1.1325597227, 1.6646273432, 3.0000000000, 0.0128117681
         108, 0.0000000000, 0.0000000000, 0.0000000000, 0.0000000000, 0.0000000000, 0.0000000000, 0.0000000000, 0.0000000000, 0.0000000000, 0.0000000000, -3.7736020632, -0.8170390168, -1.1373483210, -1.1290283809, 1.6616809278, 3.0000000000, 0.0129319191
         109, 0.0000000000, 0.0000000000, 0.0000000000, 0.0000000000, 0.0000000000, 0.0000000000, 0.0000000000, 0.0000000000, 0.0000000000, 0.0000000000, -3.7761838005, -0.8183960478, -1.1344788636, -1.1260519691, 1.6591985603, 3.0000000000, 0.0130521695
         110, 0.0000000000, 0.0000000000, 0.0000000000, 0.0000000000, 0.0000000000, 0.0000000000, 0.0000000000, 0.0000000000, 0.0000000000, 0.0000000000, -3.7782817530, -0.8198229795, -1.1320802194, -1.1236134819, 1.6571255575, 3.0000000000, 0.0131696026
         111, 0.0000000000, 0.0000000000, 0.0000000000, 0.0000000000, 0.0000000000, 0.0000000000, 0.0000000000, 0.0000000000, 0.0000000000, 0.0000000000, -3.7799590557, -0.8213205648, -1.1301384221, -1.1216960287, 1.6553907633, 3.0000000000, 0.0132814010
         112, 0.0000000000, 0.0000000000, 0.0000000000, 0.0000000000, 0.0000000000, 0.0000000000, 0.0000000000, 0.0000000000, 0.0000000000, 0.0000000000, -3.7812946843, -0.8228865145, -1.1286404769, -1.1202829309, 1.6539107197, 3.0000000000, 0.0134032687
         113, 0.0000000000, 0.0000000000, 0.0000000000, 0.0000000000, 0.0000000000, 0.0000000000, 0.0000000000, 0.0000000000, 0.0000000000, 0.0000000000, -3.7823789702, -0.8245156982, -1.1275745535, -1.1193577346, 1.6525940926, 3.0000000000, 0.0135257006
         114, 0.0000000000, 0.0000000000, 0.0000000000, 0.0000000000, 0.0000000000, 0.0000000000, 0.0000000000, 0.0000000000, 0.0000000000, 0.0000000000, -3.7833089058, -0.8262002706, -1.1269300161, -1.1189044374, 1.6513460975, 3.0000000000, 0.0136375666
         115, 0.0000000000, 0.0000000000, 0.0000000000, 0.0000000000, 0.0000000000, 0.0000000000, 0.0000000000, 0.0000000000, 0.0000000000, 0.0000000000, -3.7841837400, -0.8279298471, -1.1266974187, -1.1189073880, 1.6500724868, 3.0000000000, 0.0137544036