TITLE = "Visualization of the surface solution"
VARIABLES = "x","y","z","Conservative_1","Conservative_2","Conservative_3","Conservative_4","Conservative_5","Pressure","Pressure_Coefficient","Mach", "Sharp_Edge_Dist"
ZONE NODES= 700, ELEMENTS= 1400, DATAPACKING=POINT, ZONETYPE=FEQUADRILATERAL
3.940400e+03	3.200000e+02	0.000000e+00	1.890044e+19	3.787400e+22	3.255772e+22	-2.267284e+22	1.591688e+26	3.183226e+25	4.986666e+21	1.889912e+00	2.600000e+02	
3.940400e+03	3.148575e+02	-5.713821e+01	2.102869e+19	4.114922e+22	3.506392e+22	-3.303385e+22	1.803203e+26	3.395198e+25	5.318730e+21	2.003939e+00	2.600000e+02	
3.940400e+03	2.995952e+02	-1.124399e+02	5.633482e+19	1.327386e+23	8.524409e+22	-1.147915e+23	5.014233e+26	6.543734e+25	1.025105e+22	2.715734e+00	2.600000e+02	
3.940400e+03	2.747036e+02	-1.641278e+02	4.444396e+19	8.711137e+22	4.867785e+22	-1.102359e+23	3.997926e+26	6.042147e+25	9.465295e+21	2.425086e+00	2.600000e+02	
3.940400e+03	2.409829e+02	-2.105404e+02	5.421612e+19	6.212788e+22	4.222104e+22	-1.500352e+23	4.779719e+26	8.733383e+25	1.368124e+22	2.060835e+00	2.600000e+02	
3.940400e+03	1.995167e+02	-2.501861e+02	6.634351e+19	7.792679e+22	3.928724e+22	-1.754616e+23	5.533577e+26	1.055734e+26	1.653854e+22	1.978979e+00	2.600000e+02	
3.940400e+03	1.516380e+02	-2.817906e+02	7.654592e+19	1.127663e+23	3.040685e+22	-2.019344e+23	6.233361e+26	1.071496e+26	1.678547e+22	2.176969e+00	2.600000e+02	
3.940400e+03	9.888544e+01	-3.043381e+02	4.314187e+19	5.762442e+22	6.646246e+20	-1.124215e+23	3.429016e+26	6.317399e+25	9.896489e+21	2.045166e+00	2.600000e+02	
3.940400e+03	4.295465e+01	-3.171039e+02	4.747383e+19	6.872262e+22	1.712763e+22	-1.211175e+23	3.852603e+26	7.117165e+25	1.114936e+22	2.039998e+00	2.600000e+02	
3.940400e+03	-1.435675e+01	-3.196778e+02	3.326734e+19	3.835686e+22	4.296331e+21	-9.835198e+22	2.985285e+26	5.230164e+25	8.193286e+21	2.140702e+00	2.600000e+02	
3.940400e+03	-7.120670e+01	-3.119769e+02	2.896741e+19	3.129088e+22	-3.754594e+21	-8.877650e+22	2.684786e+26	4.611925e+25	7.224788e+21	2.178269e+00	2.600000e+02	
3.940400e+03	-1.257680e+02	-2.942489e+02	2.848589e+19	-8.822955e+20	-1.977233e+22	-1.052974e+23	2.988682e+26	3.895112e+25	6.101868e+21	2.718430e+00	2.600000e+02	
3.940400e+03	-1.762870e+02	-2.670634e+02	3.942805e+19	-1.922094e+22	-3.558003e+22	-1.612393e+23	4.503585e+26	3.997162e+25	6.261734e+21	3.538958e+00	2.600000e+02	
3.940400e+03	-2.211400e+02	-2.312944e+02	3.717015e+19	-2.583012e+22	-3.574487e+22	-1.560178e+23	4.356565e+26	3.282410e+25	5.142042e+21	3.922911e+00	2.600000e+02	
3.940400e+03	-2.588854e+02	-1.880913e+02	3.283529e+19	-2.552544e+22	-3.745855e+22	-1.444635e+23	4.059283e+26	2.273865e+25	3.562111e+21	4.683087e+00	2.600000e+02	
3.940400e+03	-2.883100e+02	-1.388428e+02	2.330252e+19	-1.933074e+22	-2.820942e+22	-1.060844e+23	2.980667e+26	1.260007e+25	1.973857e+21	5.497527e+00	2.600000e+02	
3.940400e+03	-3.084681e+02	-8.513179e+01	1.780399e+19	-2.130244e+22	-2.440776e+22	-8.341761e+22	2.380498e+26	5.262229e+24	8.243518e+20	7.813674e+00	2.600000e+02	
3.940400e+03	-3.187118e+02	-2.868458e+01	1.457011e+19	-2.091507e+22	-2.199437e+22	-6.913168e+22	1.991771e+26	1.423254e+24	2.229591e+20	1.401249e+01	2.600000e+02	
3.940400e+03	-3.187118e+02	2.868458e+01	1.434911e+19	-2.323800e+22	-2.342728e+22	-6.615336e+22	1.940151e+26	1.432552e+24	2.244156e+20	1.378059e+01	2.600000e+02	
3.940400e+03	-3.084681e+02	8.513179e+01	1.307839e+19	-2.067220e+22	-2.025029e+22	-6.051323e+22	1.764330e+26	1.768647e+24	2.770664e+20	1.178716e+01	2.600000e+02	
3.940400e+03	-2.883100e+02	1.388428e+02	1.492997e+19	-2.632346e+22	-2.397841e+22	-6.690091e+22	1.981171e+26	2.306002e+24	3.612456e+20	1.091615e+01	2.600000e+02	
3.940400e+03	-2.588854e+02	1.880913e+02	1.379986e+19	-2.492179e+22	-2.082047e+22	-5.996021e+22	1.782735e+26	3.920094e+24	6.141003e+20	7.835528e+00	2.600000e+02	
3.940400e+03	-2.211400e+02	2.312944e+02	1.085302e+19	-1.834089e+22	-1.381423e+22	-4.570823e+22	1.360683e+26	6.210986e+24	9.729788e+20	5.265477e+00	2.600000e+02	
3.940400e+03	-1.762870e+02	2.670634e+02	9.671816e+18	-1.580536e+22	-9.121973e+21	-3.997555e+22	1.160155e+26	6.474411e+24	1.014245e+21	4.693321e+00	2.600000e+02	
3.940400e+03	-1.257680e+02	2.942489e+02	5.558975e+18	-8.906683e+21	-2.734867e+21	-2.134836e+22	6.263373e+25	5.533309e+24	8.668177e+20	3.549527e+00	2.600000e+02	
3.940400e+03	-7.120670e+01	3.119769e+02	5.393114e+18	-7.970521e+21	-5.380642e+20	-2.047249e+22	5.909157e+25	5.727069e+24	8.971711e+20	3.341929e+00	2.600000e+02	
3.940400e+03	-1.435675e+01	3.196778e+02	4.899171e+18	-6.474832e+21	9.706181e+20	-1.775447e+22	5.153952e+25	5.997552e+24	9.395434e+20	2.950406e+00	2.600000e+02	
3.940400e+03	4.295465e+01	3.171039e+02	4.599939e+18	-5.761368e+21	1.661948e+21	-1.634842e+22	4.776805e+25	5.923294e+24	9.279106e+20	2.819433e+00	2.600000e+02	
3.940400e+03	9.888544e+01	3.043381e+02	3.265631e+18	-3.414389e+21	2.093009e+21	-1.139106e+22	3.346612e+25	4.457398e+24	6.982714e+20	2.674748e+00	2.600000e+02	
3.940400e+03	1.516380e+02	2.817906e+02	2.888985e+18	-1.883415e+21	2.901145e+21	-9.591013e+21	2.856080e+25	4.227924e+24	6.623232e+20	2.465557e+00	2.600000e+02	
3.940400e+03	1.995167e+02	2.501861e+02	3.704636e+18	-1.643522e+21	4.137717e+21	-1.307893e+22	3.718333e+25	4.568395e+24	7.156596e+20	2.838323e+00	2.600000e+02	
3.940400e+03	2.409829e+02	2.105404e+02	5.084695e+18	-1.457858e+21	4.882176e+21	-1.568427e+22	4.838847e+25	8.658292e+24	1.356360e+21	2.100573e+00	2.600000e+02	
3.940400e+03	2.747036e+02	1.641278e+02	1.363879e+19	1.886881e+22	1.657793e+22	-1.569131e+22	1.106159e+26	3.138485e+25	4.916577e+21	1.209781e+00	2.600000e+02	
3.940400e+03	2.995952e+02	1.124399e+02	1.202810e+19	1.476501e+22	1.801864e+22	-1.387803e+22	9.665531e+25	2.643614e+25	4.141340e+21	1.285180e+00	2.600000e+02	
3.940400e+03	3.148575e+02	5.713821e+01	1.760766e+19	3.418559e+22	2.454739e+22	-1.767670e+22	1.423679e+26	3.327912e+25	5.213324e+21	1.593735e+00	2.600000e+02	
3.940400e+03	6.000000e+01	0.000000e+00	1.024476e+20	1.566491e+23	-2.573233e+22	-2.803782e+23	8.537783e+26	1.388457e+26	2.175080e+22	2.283204e+00	0.000000e+00	
3.940400e+03	5.903578e+01	1.071341e+01	9.468873e+19	1.603046e+23	-8.169140e+21	-2.515905e+23	7.928309e+26	1.290170e+26	2.021109e+22	2.281969e+00	0.000000e+00	
3.940400e+03	5.617409e+01	2.108249e+01	1.105600e+20	1.838016e+23	-2.920173e+21	-2.877616e+23	9.190355e+26	1.566911e+26	2.454636e+22	2.192607e+00	0.000000e+00	
3.940400e+03	5.150693e+01	3.077396e+01	1.398411e+20	2.414423e+23	4.723798e+21	-3.362955e+23	1.140518e+27	2.110556e+26	3.306280e+22	2.036760e+00	0.000000e+00	
3.940400e+03	4.518429e+01	3.947632e+01	1.122359e+20	1.334358e+23	2.882064e+22	-2.603502e+23	9.166270e+26	2.126574e+26	3.331374e+22	1.608169e+00	0.000000e+00	
3.940400e+03	3.740939e+01	4.690989e+01	1.362915e+20	1.427151e+23	2.715242e+22	-3.041277e+23	1.094826e+27	2.712310e+26	4.248956e+22	1.481556e+00	0.000000e+00	
3.940400e+03	2.843212e+01	5.283573e+01	8.577783e+19	3.150490e+22	5.550856e+22	-2.036750e+23	7.010045e+26	1.741803e+26	2.728613e+22	1.475801e+00	0.000000e+00	
3.940400e+03	1.854102e+01	5.706339e+01	2.279008e+20	2.302932e+23	1.402077e+23	-5.322109e+23	1.917160e+27	4.544988e+26	7.119928e+22	1.566701e+00	0.000000e+00	
3.940400e+03	8.053996e+00	5.945699e+01	9.849317e+19	4.556800e+22	1.641583e+22	-2.412404e+23	8.080316e+26	2.002745e+26	3.137390e+22	1.480647e+00	0.000000e+00	
3.940400e+03	-2.691890e+00	5.993958e+01	1.044587e+20	-5.328272e+22	1.898526e+21	-3.139392e+23	9.928403e+26	2.029917e+26	3.179955e+22	1.848181e+00	0.000000e+00	
3.940400e+03	-1.335126e+01	5.849567e+01	9.436564e+19	-1.482203e+22	2.658938e+21	-2.646373e+23	8.472178e+26	1.899778e+26	2.976087e+22	1.673134e+00	0.000000e+00	
3.940400e+03	-2.358150e+01	5.517167e+01	1.615024e+20	1.672126e+23	5.100201e+22	-3.616756e+23	1.193685e+27	2.776375e+26	4.349316e+22	1.603317e+00	0.000000e+00	
3.940400e+03	-3.305382e+01	5.007440e+01	1.691500e+20	1.829543e+23	3.755571e+22	-3.913728e+23	1.199132e+27	2.572992e+26	4.030708e+22	1.756805e+00	0.000000e+00	
3.940400e+03	-4.146376e+01	4.336769e+01	9.006000e+19	7.498764e+22	6.735003e+21	-2.087152e+23	6.319364e+26	1.434462e+26	2.247149e+22	1.649844e+00	0.000000e+00	
3.940400e+03	-4.854102e+01	3.526712e+01	2.320484e+20	3.454747e+23	6.142578e+22	-5.198613e+23	1.647987e+27	3.201432e+26	5.015188e+22	1.944830e+00	0.000000e+00	
3.940400e+03	-5.405813e+01	2.603302e+01	2.383480e+20	3.735603e+23	6.039178e+22	-5.892534e+23	1.834336e+27	3.222235e+26	5.047775e+22	2.135665e+00	0.000000e+00	
3.940400e+03	-5.783777e+01	1.596221e+01	1.671581e+20	2.271219e+23	4.790156e+22	-4.438994e+23	1.285188e+27	2.138498e+26	3.350052e+22	2.239187e+00	0.000000e+00	
3.940400e+03	-5.975846e+01	5.378359e+00	9.812866e+19	1.250623e+23	7.764003e+21	-2.708482e+23	7.451554e+26	1.165462e+26	1.825748e+22	2.358465e+00	0.000000e+00	
3.940400e+03	-5.975846e+01	-5.378359e+00	5.087540e+19	5.065498e+22	1.626558e+22	-1.416209e+23	3.890919e+26	6.566409e+25	1.028657e+22	2.212139e+00	0.000000e+00	
3.940400e+03	-5.783777e+01	-1.596221e+01	4.412993e+19	4.755191e+22	2.337928e+22	-1.152984e+23	3.490451e+26	6.664486e+25	1.044022e+22	1.977512e+00	0.000000e+00	
3.940400e+03	-5.405813e+01	-2.603302e+01	3.323431e+19	3.258171e+22	2.560676e+22	-8.921172e+22	2.666868e+26	4.844572e+25	7.589239e+21	2.071872e+00	0.000000e+00	
3.940400e+03	-4.854102e+01	-3.526712e+01	2.540905e+19	2.964376e+22	2.589743e+22	-6.286551e+22	2.019232e+26	3.746580e+25	5.869185e+21	2.031725e+00	0.000000e+00	
3.940400e+03	-4.146376e+01	-4.336769e+01	2.218002e+19	2.422388e+22	2.486107e+22	-5.411317e+22	1.723860e+26	3.168568e+25	4.963703e+21	2.049565e+00	0.000000e+00	
3.940400e+03	-3.305382e+01	-5.007440e+01	1.643308e+19	1.211877e+22	1.887233e+22	-4.105412e+22	1.233271e+26	2.269591e+25	3.555416e+21	2.047260e+00	0.000000e+00	
3.940400e+03	-2.358150e+01	-5.517167e+01	1.645448e+19	1.529127e+20	1.646166e+22	-4.411142e+22	1.167707e+26	1.976330e+25	3.096010e+21	2.206633e+00	0.000000e+00	
3.940400e+03	-1.335126e+01	-5.849567e+01	2.202939e+19	-9.001377e+20	1.546875e+22	-6.796166e+22	1.614497e+26	2.046719e+25	3.206277e+21	2.774429e+00	0.000000e+00	
3.940400e+03	-2.691890e+00	-5.993958e+01	1.487200e+19	-3.816762e+21	8.697651e+21	-4.743792e+22	1.148464e+26	1.446233e+25	2.265588e+21	2.788003e+00	0.000000e+00	
3.940400e+03	8.053996e+00	-5.945699e+01	1.617173e+19	-2.984479e+21	7.142315e+21	-5.264272e+22	1.286049e+26	1.642807e+25	2.573531e+21	2.758976e+00	0.000000e+00	
3.940400e+03	1.854102e+01	-5.706339e+01	2.150600e+19	-3.690267e+21	2.620778e+21	-6.948356e+22	1.703394e+26	2.304646e+25	3.610331e+21	2.643356e+00	0.000000e+00	
3.940400e+03	2.843212e+01	-5.283573e+01	1.961898e+19	1.099562e+19	-5.231184e+21	-5.999203e+22	1.534427e+26	2.440870e+25	3.823732e+21	2.325755e+00	0.000000e+00	
3.940400e+03	3.740939e+01	-4.690989e+01	2.135709e+19	1.307568e+22	-1.636538e+22	-6.034786e+22	1.719935e+26	3.058373e+25	4.791078e+21	2.112444e+00	0.000000e+00	
3.940400e+03	4.518429e+01	-3.947632e+01	2.234267e+19	2.838842e+22	-1.857926e+22	-5.885905e+22	1.896078e+26	3.452773e+25	5.408924e+21	2.067249e+00	0.000000e+00	
3.940400e+03	5.150693e+01	-3.077396e+01	3.579975e+19	5.897279e+22	-2.363525e+22	-9.086484e+22	3.089906e+26	5.492072e+25	8.603577e+21	2.113265e+00	0.000000e+00	
3.940400e+03	5.617409e+01	-2.108249e+01	4.460061e+19	6.260383e+22	-2.367704e+22	-1.179315e+23	3.775051e+26	6.854724e+25	1.073823e+22	2.072688e+00	0.000000e+00	
3.940400e+03	5.903578e+01	-1.071341e+01	7.270795e+19	9.978570e+22	-2.354298e+22	-2.024165e+23	6.037001e+26	9.986169e+25	1.564378e+22	2.250512e+00	0.000000e+00	
3.940400e+03	-1.194404e+02	8.930165e+01	3.844189e+18	5.601701e+21	-4.069332e+21	-1.040105e+22	3.544404e+25	6.055206e+24	9.485753e+20	2.188764e+00	8.914285e+01	
3.940400e+03	-8.822299e+01	9.160743e+01	3.841845e+18	5.881574e+21	-2.655351e+21	-6.847378e+21	3.030832e+25	7.514583e+24	1.177193e+21	1.479993e+00	6.718257e+01	
3.940400e+03	-1.007648e+02	6.866301e+01	2.566609e+19	5.883996e+22	-1.783764e+22	-4.198934e+22	1.914838e+26	3.339701e+25	5.231792e+21	2.149272e+00	6.198879e+01	
3.940400e+03	-2.784751e+02	-3.826221e+00	2.425152e+18	-2.583924e+21	-4.043597e+21	-1.043660e+22	3.051310e+25	1.323446e+24	2.073237e+20	5.418988e+00	2.187221e+02	
3.940400e+03	-2.321128e+02	-1.670128e+01	3.406734e+18	4.274644e+21	-5.259374e+21	-8.386027e+21	2.987358e+25	5.124185e+24	8.027265e+20	2.181061e+00	1.727258e+02	
3.940400e+03	-2.701273e+02	-5.015261e+01	2.153591e+18	9.154876e+20	-3.409383e+21	-6.946552e+21	2.158242e+25	2.994333e+24	4.690757e+20	2.593331e+00	2.150252e+02	
3.940400e+03	-7.453064e+01	-3.135930e+01	4.344074e+20	1.151602e+24	1.127106e+23	-1.059011e+24	4.024059e+27	4.768652e+26	7.470307e+22	2.912674e+00	2.115403e+01	
3.940400e+03	-6.333818e+01	-2.483555e+01	1.382861e+20	3.154821e+23	1.029527e+23	-3.522523e+23	1.201365e+27	1.418137e+26	2.221575e+22	2.920722e+00	9.356994e+00	
3.940400e+03	-6.286749e+01	-3.418069e+01	6.549830e+19	1.443080e+23	5.686637e+22	-1.561819e+23	5.788765e+26	8.360361e+25	1.309688e+22	2.513978e+00	1.199955e+01	
3.940400e+03	-1.862281e+02	5.363719e+00	9.095360e+18	1.856825e+22	-1.211654e+22	-1.781619e+22	7.740296e+25	1.317173e+25	2.063411e+21	2.196245e+00	1.264696e+02	
3.940400e+03	-1.557583e+02	3.378335e+01	6.059480e+18	1.080895e+22	-7.672455e+21	-1.251885e+22	5.089538e+25	9.386204e+24	1.470391e+21	2.043233e+00	9.952901e+01	
3.940400e+03	-1.374890e+02	9.030655e+00	3.789347e+19	9.686164e+22	-3.680537e+22	-6.827899e+22	3.067748e+26	4.143560e+25	6.491072e+21	2.646738e+00	7.781635e+01	
3.940400e+03	-1.453256e+02	-1.948142e+01	2.306535e+19	5.616807e+22	-1.717038e+22	-4.588327e+22	1.876888e+26	2.690849e+25	4.215336e+21	2.528432e+00	8.672156e+01	
3.940400e+03	-1.810065e+02	-3.377659e+01	5.124517e+19	1.270895e+23	-4.913253e+22	-1.035888e+23	4.105875e+26	4.989684e+25	7.816563e+21	2.860751e+00	1.244503e+02	
3.940400e+03	-1.398665e+02	-9.887917e+01	2.961867e+19	7.191917e+22	-1.515630e+22	-7.427797e+22	2.611983e+26	3.074677e+25	4.816620e+21	2.926515e+00	1.112962e+02	
3.940400e+03	-1.410331e+02	-5.771836e+01	7.521868e+19	1.898373e+23	-3.535094e+22	-1.704618e+23	6.190492e+26	7.121368e+25	1.115594e+22	2.974376e+00	9.256674e+01	
3.940400e+03	-1.107582e+02	-6.437889e+01	9.390870e+19	2.442203e+23	-1.751696e+22	-2.354799e+23	8.516558e+26	9.488920e+25	1.486482e+22	3.041444e+00	6.844925e+01	
3.940400e+03	-4.145764e+01	-5.458249e+01	7.219015e+19	1.501467e+23	8.504625e+22	-1.643418e+23	6.080690e+26	8.590658e+25	1.345765e+22	2.557415e+00	9.536624e+00	
3.940400e+03	-5.361567e+01	-6.151504e+01	1.001737e+20	2.389410e+23	1.020267e+23	-2.486143e+23	9.176103e+26	1.088698e+26	1.705494e+22	2.910207e+00	2.184022e+01	
3.940400e+03	-5.061377e+01	-5.017079e+01	6.460436e+19	1.435898e+23	7.211709e+22	-1.486962e+23	5.678868e+26	7.877635e+25	1.234067e+22	2.593632e+00	1.140196e+01	
3.940400e+03	-2.019860e+02	-1.058660e+02	3.002972e+19	6.828207e+22	-2.707234e+22	-7.381544e+22	2.513393e+26	2.831345e+25	4.435430e+21	3.018284e+00	1.680951e+02	
3.940400e+03	-2.495642e+02	-1.279906e+02	1.196955e+19	2.730690e+22	-1.421218e+22	-2.967588e+22	1.031979e+26	1.072983e+25	1.680876e+21	3.188787e+00	2.204948e+02	
3.940400e+03	-2.443154e+02	-8.729493e+01	1.708968e+19	3.911800e+22	-2.143382e+22	-4.102476e+22	1.491394e+26	1.667476e+25	2.612175e+21	3.034097e+00	1.996553e+02	
3.940400e+03	-2.684499e+02	7.702261e+01	2.842637e+18	-4.470558e+21	-4.441200e+21	-1.256881e+22	3.646328e+25	6.767469e+23	1.060154e+20	8.567399e+00	2.192849e+02	
3.940400e+03	-2.546976e+02	3.289058e+01	1.693238e+18	-1.080191e+21	-2.708222e+21	-6.865606e+21	2.002940e+25	1.439991e+24	2.255810e+20	4.037219e+00	1.968710e+02	
3.940400e+03	-1.087169e+02	7.627523e+00	4.842425e+19	1.172769e+23	-2.964618e+22	-8.768659e+22	3.513058e+26	4.833005e+25	7.571119e+21	2.610115e+00	4.901011e+01	
3.940400e+03	-1.025255e+02	2.411422e+01	1.088022e+20	2.883249e+23	-7.469124e+22	-2.118835e+23	8.105159e+26	7.861449e+25	1.231531e+22	3.340232e+00	4.542517e+01	
3.940400e+03	-9.342881e+01	1.190229e+01	9.636585e+19	2.400138e+23	-5.985967e+22	-1.958853e+23	7.100841e+26	7.740268e+25	1.212548e+22	3.087740e+00	3.429657e+01	
3.940400e+03	-1.859687e+02	1.406249e+02	1.154440e+18	-5.341128e+20	-1.060217e+21	-4.764193e+21	1.294088e+25	9.999767e+23	1.566508e+20	3.862120e+00	1.731664e+02	
3.940400e+03	-2.302590e+02	1.056259e+02	1.412542e+18	-1.593021e+21	-1.845131e+21	-6.124684e+21	1.732192e+25	7.761709e+23	1.215907e+20	5.320733e+00	1.933437e+02	
3.940400e+03	-2.322257e+02	1.493056e+02	2.396169e+18	-3.558616e+21	-3.316159e+21	-1.034113e+22	2.972884e+25	9.908397e+23	1.552195e+20	6.268251e+00	2.162056e+02	
3.940400e+03	-6.771175e+01	-8.000007e-02	1.315046e+20	3.086498e+23	2.586910e+22	-3.098718e+23	1.051603e+27	1.287055e+26	2.016230e+22	2.846203e+00	9.556543e+00	
3.940400e+03	-6.661549e+01	-1.044419e+01	1.030159e+20	2.409957e+23	3.742426e+22	-2.398416e+23	8.502042e+26	1.129257e+26	1.769031e+22	2.680321e+00	8.525351e+00	
3.940400e+03	-1.673065e+02	9.598914e+01	1.388039e+18	1.413462e+19	-1.308467e+21	-5.288149e+21	1.481642e+25	1.650492e+24	2.585570e+20	3.041845e+00	1.331129e+02	
3.940400e+03	-1.997807e+02	5.450007e+01	1.965597e+18	1.287947e+21	-2.689249e+21	-6.483623e+21	2.018626e+25	2.892543e+24	4.531299e+20	2.529461e+00	1.470815e+02	
3.940400e+03	-1.224775e+02	-3.685207e+01	2.029259e+20	5.549517e+23	-1.997130e+22	-4.854863e+23	1.777863e+27	1.749227e+26	2.740243e+22	3.308799e+00	6.793141e+01	
3.940400e+03	-2.132862e+02	-5.940273e+01	1.005279e+19	2.153649e+22	-1.105594e+22	-2.229410e+22	8.242980e+25	1.142406e+25	1.789629e+21	2.595452e+00	1.614041e+02	
3.940400e+03	2.072463e+00	-6.607743e+01	1.809502e+19	8.978194e+21	9.880593e+21	-5.949338e+22	1.397132e+26	1.479446e+25	2.317619e+21	3.149516e+00	7.769956e+00	
3.940400e+03	-7.980384e+00	-6.389173e+01	2.383744e+19	1.445249e+22	1.590397e+22	-7.605865e+22	1.783073e+26	1.891183e+25	2.962623e+21	3.146051e+00	6.602095e+00	
3.940400e+03	-1.963081e+02	-1.893297e+02	1.494553e+19	3.921146e+22	-1.081373e+22	-3.625154e+22	1.340607e+26	1.389803e+25	2.177189e+21	3.195090e+00	2.127949e+02	
3.940400e+03	-2.130500e+02	-1.462415e+02	9.466240e+18	1.930596e+22	-8.703580e+21	-2.504209e+22	8.168277e+25	9.948590e+24	1.558491e+21	2.856193e+00	1.984402e+02	
3.940400e+03	-1.375031e+02	-2.443658e+02	2.729826e+19	7.276327e+22	-1.818571e+22	-7.299507e+22	2.622542e+26	2.465119e+25	3.861719e+21	3.409776e+00	2.205874e+02	
3.940400e+03	-9.636097e+01	-2.114389e+02	8.245023e+19	2.140065e+23	-2.034744e+22	-2.347270e+23	8.239350e+26	8.382676e+25	1.313184e+22	3.235743e+00	1.723842e+02	
3.940400e+03	-9.487708e+01	-2.585923e+02	4.469395e+19	1.318444e+23	-1.378127e+22	-1.232995e+23	4.539300e+26	3.490499e+25	5.468024e+21	3.873856e+00	2.155528e+02	
3.940400e+03	7.032604e+00	-1.619390e+02	4.875696e+19	9.467347e+22	4.491455e+22	-1.113342e+23	4.078274e+26	6.724437e+25	1.053413e+22	2.256690e+00	1.024619e+02	
3.940400e+03	-1.522751e+01	-1.261824e+02	1.921788e+20	4.873860e+23	2.147474e+23	-4.428956e+23	1.646660e+27	1.593186e+26	2.495797e+22	3.345710e+00	6.741853e+01	
3.940400e+03	1.124117e+01	-1.292409e+02	5.196069e+19	8.085749e+22	3.365932e+22	-1.253739e+23	4.057187e+26	7.225985e+25	1.131983e+22	2.109407e+00	6.985668e+01	
3.940400e+03	-1.817200e+02	-2.298929e+02	1.318956e+19	3.026026e+22	-9.683473e+21	-3.435702e+22	1.215522e+26	1.541497e+25	2.414824e+21	2.773688e+00	2.333159e+02	
3.940400e+03	-1.554736e+02	-2.078949e+02	2.547258e+19	5.831278e+22	-2.001365e+22	-7.009141e+22	2.375967e+26	2.662211e+25	4.170473e+21	3.029566e+00	1.997346e+02	
3.940400e+03	-1.384396e+02	-1.792445e+02	3.162746e+19	7.670787e+22	-1.906114e+22	-8.642692e+22	2.993271e+26	3.298953e+25	5.167958e+21	3.064403e+00	1.667066e+02	
3.940400e+03	-5.556356e+01	-2.538221e+02	6.856908e+19	1.826516e+23	7.319652e+21	-1.921170e+23	6.830693e+26	6.810867e+25	1.066953e+22	3.279614e+00	1.998357e+02	
3.940400e+03	1.145121e+01	-6.828578e+01	2.684905e+19	2.057716e+22	9.029255e+21	-8.789129e+22	2.101209e+26	2.274396e+25	3.562944e+21	3.102657e+00	9.459840e+00	
3.940400e+03	-1.507815e+01	-2.728744e+02	6.308125e+19	1.615078e+23	1.820670e+22	-1.688936e+23	5.854761e+26	5.999827e+25	9.398999e+21	3.220075e+00	2.132948e+02	
3.940400e+03	2.894796e+01	-2.510403e+02	1.147423e+20	2.730040e+23	4.708130e+22	-2.852814e+23	1.005769e+27	1.266755e+26	1.984428e+22	2.787659e+00	1.927193e+02	
3.940400e+03	-7.149531e+00	-1.080403e+02	7.268938e+19	1.488999e+23	9.899132e+22	-1.541113e+23	5.952026e+26	8.476910e+25	1.327946e+22	2.541501e+00	4.830681e+01	
3.940400e+03	1.224059e+01	-1.075700e+02	7.896815e+19	1.225530e+23	2.718314e+22	-2.093826e+23	5.915547e+26	8.567693e+25	1.342168e+22	2.508409e+00	4.829483e+01	
3.940400e+03	7.023635e+01	-2.669977e+02	1.200984e+20	2.997397e+23	2.599938e+22	-2.940725e+23	1.031518e+27	1.178512e+26	1.846193e+22	2.988719e+00	2.162056e+02	
3.940400e+03	7.627474e+01	-2.203222e+02	1.176717e+20	2.692086e+23	-3.823831e+21	-2.888741e+23	9.968805e+26	1.337162e+26	2.094724e+22	2.660611e+00	1.731664e+02	
3.940400e+03	1.105489e+02	-2.550466e+02	1.059658e+20	2.634244e+23	9.960964e+21	-2.650909e+23	8.925404e+26	9.322376e+25	1.460392e+22	3.178988e+00	2.182485e+02	
3.940400e+03	5.339973e+01	-3.860836e+01	1.336587e+20	3.186755e+23	-6.200057e+22	-3.498729e+23	1.227583e+27	1.501513e+26	2.352188e+22	2.847465e+00	8.059811e+00	
3.940400e+03	5.187524e+01	-4.807792e+01	1.461849e+20	3.481976e+23	-7.203260e+22	-3.924166e+23	1.346453e+27	1.549286e+26	2.427025e+22	2.973885e+00	1.089754e+01	
3.940400e+03	4.710337e+01	-1.409962e+02	1.388493e+20	3.167902e+23	-2.053439e+22	-3.633486e+23	1.223091e+27	1.539090e+26	2.411054e+22	2.789481e+00	8.865962e+01	
3.940400e+03	3.890255e+01	-1.875173e+02	5.727562e+19	1.163391e+23	1.714748e+22	-1.377503e+23	4.871188e+26	8.029977e+25	1.257932e+22	2.257133e+00	1.317235e+02	
3.940400e+03	8.575768e+01	-1.722960e+02	1.058409e+20	2.408182e+23	-3.213498e+21	-2.768358e+23	9.473814e+26	1.245296e+26	1.950812e+22	2.701238e+00	1.325027e+02	
3.940400e+03	6.186663e+01	-3.172885e+01	2.488185e+20	6.529641e+23	-5.604573e+22	-6.540324e+23	2.336924e+27	2.457037e+26	3.849059e+22	3.164794e+00	1.040362e+01	
3.940400e+03	1.323166e+02	-1.563878e+02	2.241364e+20	5.398580e+23	9.040072e+22	-5.778868e+23	2.033057e+27	2.478776e+26	3.883114e+22	2.854034e+00	1.448889e+02	
3.940400e+03	1.798856e+02	-2.129729e+02	1.505691e+20	4.117035e+23	9.363032e+22	-3.256393e+23	1.286690e+27	1.370325e+26	2.146675e+22	3.137258e+00	2.188068e+02	
3.940400e+03	1.340697e+02	-2.165856e+02	2.637609e+20	6.840554e+23	7.787288e+22	-6.551846e+23	2.298082e+27	2.343224e+26	3.670766e+22	3.230955e+00	1.948674e+02	
3.940400e+03	9.105777e+01	-3.652922e+01	8.994108e+20	2.541004e+24	4.617652e+23	-2.380737e+24	8.933557e+27	8.298838e+26	1.300050e+23	3.436117e+00	3.815065e+01	
3.940400e+03	7.323190e+01	-3.515638e+01	1.199332e+21	3.401614e+24	2.339014e+23	-3.168330e+24	1.124622e+28	8.858123e+26	1.387665e+23	3.816495e+00	2.211432e+01	
3.940400e+03	7.975661e+01	-2.576563e+01	1.774654e+21	5.340338e+24	8.517339e+23	-4.466945e+24	1.681472e+28	1.181344e+27	1.850628e+23	4.094169e+00	2.404303e+01	
3.940400e+03	1.911540e+02	-1.664035e+02	9.603890e+19	2.433573e+23	7.046173e+22	-2.417361e+23	8.851097e+26	9.868077e+25	1.545879e+22	3.040072e+00	1.934365e+02	
3.940400e+03	2.065085e+02	-1.102711e+02	1.519582e+20	4.127269e+23	1.434933e+23	-3.550560e+23	1.417555e+27	1.498039e+26	2.346745e+22	3.153850e+00	1.741990e+02	
3.940400e+03	2.310447e+02	-1.493064e+02	6.630213e+19	1.670198e+23	6.383376e+22	-1.584954e+23	6.032112e+26	6.906932e+25	1.082002e+22	2.984105e+00	2.151366e+02	
3.940400e+03	1.134762e+02	-5.140928e+01	6.207428e+20	1.716177e+24	4.034971e+23	-1.573808e+24	5.997788e+27	5.996763e+26	9.394199e+22	3.273641e+00	6.483248e+01	
3.940400e+03	1.066103e+02	-3.082671e+01	8.485899e+20	2.380259e+24	6.529973e+23	-2.044155e+24	8.034448e+27	7.931500e+26	1.242505e+23	3.301471e+00	5.136884e+01	
3.940400e+03	1.970121e+02	-2.362965e+01	3.618610e+20	1.095413e+24	3.417115e+23	-7.745897e+23	3.660960e+27	4.050348e+26	6.345052e+22	3.056289e+00	1.385796e+02	
3.940400e+03	2.350815e+02	-2.877342e+01	4.806504e+20	1.423782e+24	5.872656e+23	-9.107959e+23	4.463201e+27	4.530913e+26	7.097878e+22	3.240493e+00	1.769697e+02	
3.940400e+03	2.166599e+02	-7.077854e+01	1.402865e+20	3.875986e+23	1.397757e+23	-3.104769e+23	1.337962e+27	1.557244e+26	2.439493e+22	2.950026e+00	1.680041e+02	
3.940400e+03	8.328372e+01	-1.361879e+02	2.500099e+20	6.716493e+23	1.369689e+22	-6.815986e+23	2.433853e+27	2.408685e+26	3.773314e+22	3.295990e+00	9.978115e+01	
3.940400e+03	2.531249e+02	-1.082218e+02	3.551412e+20	1.032213e+24	3.965062e+23	-7.729190e+23	3.288032e+27	2.902208e+26	4.546439e+22	3.551542e+00	2.153668e+02	
3.940400e+03	9.036317e+01	-8.538605e+00	2.681245e+20	6.702406e+23	1.619920e+23	-6.745887e+23	2.380728e+27	2.581853e+26	4.044589e+22	3.098618e+00	3.140279e+01	
3.940400e+03	7.601483e+01	-1.273958e+01	1.152583e+21	3.416140e+24	4.935388e+23	-2.988431e+24	1.146535e+28	9.691666e+26	1.518243e+23	3.650854e+00	1.709952e+01	
3.940400e+03	8.334955e+01	1.526281e+00	3.434435e+20	8.181521e+23	1.244176e+23	-8.812736e+23	2.972567e+27	3.379429e+26	5.294027e+22	2.999062e+00	2.339938e+01	
3.940400e+03	1.111304e+02	-8.299026e+00	2.909776e+20	7.388357e+23	2.231954e+23	-7.261863e+23	2.766002e+27	3.344922e+26	5.239970e+22	2.870853e+00	5.179954e+01	
3.940400e+03	9.689536e+01	5.236328e-01	1.161012e+21	3.214606e+24	7.810089e+23	-2.896448e+24	1.050838e+28	8.729669e+26	1.367542e+23	3.691215e+00	3.689908e+01	
3.940400e+03	2.802630e+02	-3.329970e+01	8.207054e+19	2.137703e+23	1.381762e+23	-1.363667e+23	7.422608e+26	9.369789e+25	1.467820e+22	2.783074e+00	2.223772e+02	
3.940400e+03	2.542117e+02	-6.157312e+01	3.227681e+20	9.295193e+23	4.057651e+23	-6.407230e+23	2.977944e+27	2.994057e+26	4.690324e+22	3.261503e+00	2.016937e+02	
3.940400e+03	2.263060e+02	1.858617e+01	2.282988e+20	6.826886e+23	3.317495e+23	-3.603735e+23	2.291526e+27	2.981311e+26	4.670357e+22	2.721949e+00	1.673413e+02	
3.940400e+03	2.689657e+02	4.425342e+01	4.152756e+19	1.013547e+23	6.698709e+22	-5.015234e+22	3.635805e+26	6.223298e+25	9.749076e+21	2.185095e+00	2.125923e+02	
3.940400e+03	2.606514e+02	1.961192e+00	1.259313e+20	3.379478e+23	2.132233e+23	-1.838741e+23	1.121212e+27	1.412020e+26	2.211993e+22	2.787852e+00	2.006609e+02	
3.940400e+03	7.767346e+01	3.916502e+01	7.119800e+20	1.798482e+24	8.041499e+22	-1.425847e+24	5.560467e+27	7.426719e+26	1.163429e+23	2.669166e+00	2.747904e+01	
3.940400e+03	6.747529e+01	3.135918e+01	2.879559e+20	6.945716e+23	2.399940e+22	-6.498368e+23	2.348461e+27	3.106119e+26	4.865875e+22	2.688801e+00	1.527507e+01	
3.940400e+03	6.611690e+01	4.542825e+01	1.210094e+21	3.223707e+24	-1.456534e+23	-2.217191e+24	9.074278e+27	1.096118e+27	1.717117e+23	2.873167e+00	2.069299e+01	
3.940400e+03	1.390424e+02	4.318160e+01	4.591942e+20	1.177827e+24	4.230881e+23	-9.251540e+23	3.866641e+27	4.916825e+26	7.702426e+22	2.768213e+00	8.576439e+01	
3.940400e+03	1.870329e+02	2.660438e+01	4.847593e+20	1.501007e+24	5.802839e+23	-9.637012e+23	5.212904e+27	6.335248e+26	9.924450e+22	2.860673e+00	1.289798e+02	
3.940400e+03	1.510426e+02	1.944643e+00	4.592194e+20	1.381186e+24	4.139258e+23	-1.062880e+24	4.878809e+27	5.540540e+26	8.679504e+22	3.001346e+00	9.106334e+01	
3.940400e+03	2.255523e+02	6.102300e+01	1.069028e+20	2.996150e+23	1.387562e+23	-1.382546e+23	9.597557e+26	1.441766e+26	2.258591e+22	2.436862e+00	1.739506e+02	
3.940400e+03	1.793188e+02	7.390932e+01	9.871818e+19	2.668964e+23	1.142254e+23	-1.576492e+23	8.800757e+26	1.309273e+26	2.051035e+22	2.455857e+00	1.339974e+02	
3.940400e+03	2.607878e+02	9.551486e+01	6.323119e+19	1.640653e+23	8.962195e+22	-6.850015e+22	5.301325e+26	8.666617e+25	1.357664e+22	2.273119e+00	2.177314e+02	
3.940400e+03	1.240855e+02	8.528063e+01	7.993188e+20	2.316958e+24	7.060978e+23	-1.492572e+24	6.991110e+27	7.710597e+26	1.207900e+23	3.062885e+00	9.076684e+01	
3.940400e+03	1.136929e+02	5.727734e+01	2.683205e+20	6.763485e+23	2.353188e+23	-5.650494e+23	2.315533e+27	3.059827e+26	4.793356e+22	2.690600e+00	6.759825e+01	
3.940400e+03	2.139433e+02	1.264562e+02	9.490447e+19	2.677183e+23	1.031545e+23	-9.457624e+22	8.001700e+26	1.277512e+26	2.001281e+22	2.318713e+00	1.885224e+02	
3.940400e+03	3.395982e+01	5.872797e+01	3.205217e+20	8.645737e+23	5.613210e+22	-4.374664e+23	2.405989e+27	3.745945e+26	5.868191e+22	2.367312e+00	8.079226e+00	
3.940400e+03	4.346401e+01	6.634323e+01	5.500558e+20	1.515358e+24	1.600645e+23	-8.534928e+23	4.331574e+27	6.235128e+26	9.767608e+22	2.520502e+00	2.020916e+01	
3.940400e+03	4.190423e+01	5.595708e+01	4.404378e+20	1.260370e+24	1.368899e+23	-7.181733e+23	3.747389e+27	5.348942e+26	8.379358e+22	2.537111e+00	1.010224e+01	
3.940400e+03	1.869523e+02	1.795851e+02	1.548032e+19	3.528825e+22	1.370648e+22	-1.301049e+22	1.349534e+26	3.327893e+25	5.213293e+21	1.490552e+00	1.993204e+02	
3.940400e+03	2.289821e+02	1.688558e+02	1.137255e+19	2.227976e+22	1.152157e+22	-8.553292e+21	9.653657e+25	2.626395e+25	4.114366e+21	1.295944e+00	2.247681e+02	
3.940400e+03	1.360763e+01	6.422747e+01	4.625118e+20	1.429527e+24	3.882990e+23	-7.040109e+23	3.864763e+27	3.827116e+26	5.995348e+22	3.294665e+00	7.321226e+00	
3.940400e+03	1.688721e+02	2.229176e+02	4.115346e+18	4.911115e+21	4.070681e+21	-7.669757e+21	3.688076e+25	9.916030e+24	1.553391e+21	1.319798e+00	2.196842e+02	
3.940400e+03	2.675392e+01	1.095902e+02	1.812058e+20	4.859944e+23	4.036772e+22	-2.632326e+23	1.254295e+27	1.627538e+26	2.549611e+22	2.727297e+00	5.316505e+01	
3.940400e+03	4.851798e+01	1.430687e+02	1.032939e+20	2.740806e+23	2.054781e+22	-1.606065e+23	7.817145e+26	1.164751e+26	1.824635e+22	2.452820e+00	9.107978e+01	
3.940400e+03	5.587255e+01	1.145781e+02	3.567297e+19	7.806384e+22	4.005196e+21	-5.496378e+22	2.425973e+26	4.584599e+25	7.181980e+21	1.996988e+00	6.756551e+01	
3.940400e+03	3.839836e+01	1.946714e+02	9.712433e+18	2.119603e+22	3.276428e+20	-1.472161e+22	8.167844e+25	1.895483e+25	2.969360e+21	1.607620e+00	1.385775e+02	
3.940400e+03	4.527903e+01	2.324673e+02	1.944858e+18	7.984139e+20	5.826780e+20	-6.200239e+21	1.916775e+25	3.613339e+24	5.660457e+20	2.001685e+00	1.769697e+02	
3.940400e+03	8.763018e+01	2.094093e+02	3.060448e+18	2.921543e+21	8.217344e+20	-5.983532e+21	2.551921e+25	7.266067e+24	1.138262e+21	1.202443e+00	1.672800e+02	