TITLE = "Visualization of the surface solution"
VARIABLES = "x","y","z","Conservative_1","Conservative_2","Conservative_3","Conservative_4","Conservative_5","Pressure","Pressure_Coefficient","Mach", "Sharp_Edge_Dist"
ZONE NODES= 0, ELEMENTS= 0, DATAPACKING=POINT, ZONETYPE=FEQUADRILATERAL
