TITLE = "Visualization of the volumetric solution"
VARIABLES = "x","y","Density","Momentum_x","Momentum_y","Energy","Pressure","Temperature","Mach","C<sub>p</sub>"
ZONE NODES= 121, ELEMENTS= 100, DATAPACKING=POINT, ZONETYPE=FEQUADRILATERAL
0.000000e+00	0.000000e+00	1.176591e+00	8.170811e+01	-3.571818e-14	2.561496e+05	1.013250e+05	3.000000e+02	2.000000e-01	0.000000e+00	
0.000000e+00	1.000000e+00	1.176591e+00	8.170811e+01	3.571818e-14	2.561496e+05	1.013250e+05	3.000000e+02	2.000000e-01	-5.129151e-15	
1.000000e+00	0.000000e+00	1.176591e+00	8.170811e+01	-4.295938e-14	2.561496e+05	1.013250e+05	3.000000e+02	2.000000e-01	0.000000e+00	
1.000000e+00	1.000000e+00	1.176591e+00	8.170811e+01	4.762423e-14	2.561496e+05	1.013250e+05	3.000000e+02	2.000000e-01	0.000000e+00	
0.000000e+00	1.000000e-01	1.176591e+00	8.170811e+01	-2.941497e-14	2.561496e+05	1.013250e+05	3.000000e+02	2.000000e-01	-5.129151e-15	
0.000000e+00	2.000000e-01	1.176591e+00	8.170811e+01	-2.311176e-14	2.561496e+05	1.013250e+05	3.000000e+02	2.000000e-01	-5.129151e-15	
0.000000e+00	3.000000e-01	1.176591e+00	8.170811e+01	-1.155588e-14	2.561496e+05	1.013250e+05	3.000000e+02	2.000000e-01	-5.129151e-15	
0.000000e+00	4.000000e-01	1.176591e+00	8.170811e+01	-1.186527e-25	2.561496e+05	1.013250e+05	3.000000e+02	2.000000e-01	-5.129151e-15	
0.000000e+00	5.000000e-01	1.176591e+00	8.170811e+01	3.304595e-31	2.561496e+05	1.013250e+05	3.000000e+02	2.000000e-01	0.000000e+00	
0.000000e+00	6.000000e-01	1.176591e+00	8.170811e+01	-1.652298e-30	2.561496e+05	1.013250e+05	3.000000e+02	2.000000e-01	-1.538745e-14	
0.000000e+00	7.000000e-01	1.176591e+00	8.170811e+01	1.155588e-14	2.561496e+05	1.013250e+05	3.000000e+02	2.000000e-01	0.000000e+00	
0.000000e+00	8.000000e-01	1.176591e+00	8.170811e+01	2.311176e-14	2.561496e+05	1.013250e+05	3.000000e+02	2.000000e-01	-1.025830e-14	
0.000000e+00	9.000000e-01	1.176591e+00	8.170811e+01	2.941497e-14	2.561496e+05	1.013250e+05	3.000000e+02	2.000000e-01	0.000000e+00	
1.000000e-01	1.000000e+00	1.176591e+00	8.170811e+01	3.422992e-14	2.561496e+05	1.013250e+05	3.000000e+02	2.000000e-01	0.000000e+00	
2.000000e-01	1.000000e+00	1.176591e+00	8.170811e+01	3.274166e-14	2.561496e+05	1.013250e+05	3.000000e+02	2.000000e-01	-5.129151e-15	
3.000000e-01	1.000000e+00	1.176591e+00	8.170811e+01	3.274166e-14	2.561496e+05	1.013250e+05	3.000000e+02	2.000000e-01	-5.129151e-15	
4.000000e-01	1.000000e+00	1.176591e+00	8.170811e+01	3.274166e-14	2.561496e+05	1.013250e+05	3.000000e+02	2.000000e-01	0.000000e+00	
5.000000e-01	1.000000e+00	1.176591e+00	8.170811e+01	4.092708e-14	2.561496e+05	1.013250e+05	3.000000e+02	2.000000e-01	0.000000e+00	
6.000000e-01	1.000000e+00	1.176591e+00	8.170811e+01	4.911249e-14	2.561496e+05	1.013250e+05	3.000000e+02	2.000000e-01	0.000000e+00	
7.000000e-01	1.000000e+00	1.176591e+00	8.170811e+01	4.911249e-14	2.561496e+05	1.013250e+05	3.000000e+02	2.000000e-01	0.000000e+00	
8.000000e-01	1.000000e+00	1.176591e+00	8.170811e+01	4.911249e-14	2.561496e+05	1.013250e+05	3.000000e+02	2.000000e-01	0.000000e+00	
9.000000e-01	1.000000e+00	1.176591e+00	8.170811e+01	4.836836e-14	2.561496e+05	1.013250e+05	3.000000e+02	2.000000e-01	0.000000e+00	
1.000000e+00	9.000000e-01	1.176591e+00	8.170811e+01	3.979319e-14	2.561496e+05	1.013250e+05	3.000000e+02	2.000000e-01	0.000000e+00	
1.000000e+00	8.000000e-01	1.176591e+00	8.170811e+01	3.196214e-14	2.561496e+05	1.013250e+05	3.000000e+02	2.000000e-01	0.000000e+00	
1.000000e+00	7.000000e-01	1.176591e+00	8.170811e+01	2.368499e-14	2.561496e+05	1.013250e+05	3.000000e+02	2.000000e-01	0.000000e+00	
1.000000e+00	6.000000e-01	1.176591e+00	8.170811e+01	1.540784e-14	2.561496e+05	1.013250e+05	3.000000e+02	2.000000e-01	5.129151e-15	
1.000000e+00	5.000000e-01	1.176591e+00	8.170811e+01	-5.567473e-15	2.561496e+05	1.013250e+05	3.000000e+02	2.000000e-01	5.129151e-15	
1.000000e+00	4.000000e-01	1.176591e+00	8.170811e+01	-2.654279e-14	2.561496e+05	1.013250e+05	3.000000e+02	2.000000e-01	5.129151e-15	
1.000000e+00	3.000000e-01	1.176591e+00	8.170811e+01	-2.753695e-14	2.561496e+05	1.013250e+05	3.000000e+02	2.000000e-01	5.129151e-15	
1.000000e+00	2.000000e-01	1.176591e+00	8.170811e+01	-2.853111e-14	2.561496e+05	1.013250e+05	3.000000e+02	2.000000e-01	0.000000e+00	
1.000000e+00	1.000000e-01	1.176591e+00	8.170811e+01	-3.574525e-14	2.561496e+05	1.013250e+05	3.000000e+02	2.000000e-01	0.000000e+00	
9.000000e-01	0.000000e+00	1.176591e+00	8.170811e+01	-4.603593e-14	2.561496e+05	1.013250e+05	3.000000e+02	2.000000e-01	0.000000e+00	
8.000000e-01	0.000000e+00	1.176591e+00	8.170811e+01	-4.911249e-14	2.561496e+05	1.013250e+05	3.000000e+02	2.000000e-01	0.000000e+00	
7.000000e-01	0.000000e+00	1.176591e+00	8.170811e+01	-4.911249e-14	2.561496e+05	1.013250e+05	3.000000e+02	2.000000e-01	0.000000e+00	
6.000000e-01	0.000000e+00	1.176591e+00	8.170811e+01	-4.911249e-14	2.561496e+05	1.013250e+05	3.000000e+02	2.000000e-01	0.000000e+00	
5.000000e-01	0.000000e+00	1.176591e+00	8.170811e+01	-4.911249e-14	2.561496e+05	1.013250e+05	3.000000e+02	2.000000e-01	0.000000e+00	
4.000000e-01	0.000000e+00	1.176591e+00	8.170811e+01	-4.911249e-14	2.561496e+05	1.013250e+05	3.000000e+02	2.000000e-01	0.000000e+00	
3.000000e-01	0.000000e+00	1.176591e+00	8.170811e+01	-4.092708e-14	2.561496e+05	1.013250e+05	3.000000e+02	2.000000e-01	0.000000e+00	
2.000000e-01	0.000000e+00	1.176591e+00	8.170811e+01	-3.274166e-14	2.561496e+05	1.013250e+05	3.000000e+02	2.000000e-01	0.000000e+00	
1.000000e-01	0.000000e+00	1.176591e+00	8.170811e+01	-3.422992e-14	2.561496e+05	1.013250e+05	3.000000e+02	2.000000e-01	0.000000e+00	
1.000000e-01	9.000000e-01	1.176591e+00	8.170811e+01	2.884593e-14	2.561496e+05	1.013250e+05	3.000000e+02	2.000000e-01	-5.129151e-15	
1.000000e-01	8.000000e-01	1.176591e+00	8.170811e+01	2.346194e-14	2.561496e+05	1.013250e+05	3.000000e+02	2.000000e-01	0.000000e+00	
1.000000e-01	7.000000e-01	1.176591e+00	8.170811e+01	8.754455e-15	2.561496e+05	1.013250e+05	3.000000e+02	2.000000e-01	-5.129151e-15	
1.000000e-01	6.000000e-01	1.176591e+00	8.170811e+01	-5.953029e-15	2.561496e+05	1.013250e+05	3.000000e+02	2.000000e-01	-1.025830e-14	
1.000000e-01	5.000000e-01	1.176591e+00	8.170811e+01	-5.953029e-15	2.561496e+05	1.013250e+05	3.000000e+02	2.000000e-01	-1.025830e-14	
1.000000e-01	4.000000e-01	1.176591e+00	8.170811e+01	-5.953029e-15	2.561496e+05	1.013250e+05	3.000000e+02	2.000000e-01	-1.025830e-14	
1.000000e-01	3.000000e-01	1.176591e+00	8.170811e+01	-1.173097e-14	2.561496e+05	1.013250e+05	3.000000e+02	2.000000e-01	-1.025830e-14	
1.000000e-01	2.000000e-01	1.176591e+00	8.170811e+01	-1.750891e-14	2.561496e+05	1.013250e+05	3.000000e+02	2.000000e-01	-1.025830e-14	
1.000000e-01	1.000000e-01	1.176591e+00	8.170811e+01	-2.586941e-14	2.561496e+05	1.013250e+05	3.000000e+02	2.000000e-01	-5.129151e-15	
2.000000e-01	9.000000e-01	1.176591e+00	8.170811e+01	2.827689e-14	2.561496e+05	1.013250e+05	3.000000e+02	2.000000e-01	-1.025830e-14	
2.000000e-01	8.000000e-01	1.176591e+00	8.170811e+01	2.381212e-14	2.561496e+05	1.013250e+05	3.000000e+02	2.000000e-01	-5.129151e-15	
2.000000e-01	7.000000e-01	1.176591e+00	8.170811e+01	5.953029e-15	2.561496e+05	1.013250e+05	3.000000e+02	2.000000e-01	-1.025830e-14	
2.000000e-01	6.000000e-01	1.176591e+00	8.170811e+01	-1.190606e-14	2.561496e+05	1.013250e+05	3.000000e+02	2.000000e-01	-1.538745e-14	
2.000000e-01	5.000000e-01	1.176591e+00	8.170811e+01	-1.190606e-14	2.561496e+05	1.013250e+05	3.000000e+02	2.000000e-01	-1.025830e-14	
2.000000e-01	4.000000e-01	1.176591e+00	8.170811e+01	-1.190606e-14	2.561496e+05	1.013250e+05	3.000000e+02	2.000000e-01	-1.025830e-14	
2.000000e-01	3.000000e-01	1.176591e+00	8.170811e+01	-1.190606e-14	2.561496e+05	1.013250e+05	3.000000e+02	2.000000e-01	-1.538745e-14	
2.000000e-01	2.000000e-01	1.176591e+00	8.170811e+01	-1.190606e-14	2.561496e+05	1.013250e+05	3.000000e+02	2.000000e-01	-1.538745e-14	
2.000000e-01	1.000000e-01	1.176591e+00	8.170811e+01	-2.232386e-14	2.561496e+05	1.013250e+05	3.000000e+02	2.000000e-01	-1.025830e-14	
3.000000e-01	9.000000e-01	1.176591e+00	8.170811e+01	2.827689e-14	2.561496e+05	1.013250e+05	3.000000e+02	2.000000e-01	-1.025830e-14	
3.000000e-01	8.000000e-01	1.176591e+00	8.170811e+01	2.381212e-14	2.561496e+05	1.013250e+05	3.000000e+02	2.000000e-01	-1.025830e-14	
3.000000e-01	7.000000e-01	1.176591e+00	8.170811e+01	8.929544e-15	2.561496e+05	1.013250e+05	3.000000e+02	2.000000e-01	-5.129151e-15	
3.000000e-01	6.000000e-01	1.176591e+00	8.170811e+01	-5.953029e-15	2.561496e+05	1.013250e+05	3.000000e+02	2.000000e-01	-1.025830e-14	
3.000000e-01	5.000000e-01	1.176591e+00	8.170811e+01	-8.929544e-15	2.561496e+05	1.013250e+05	3.000000e+02	2.000000e-01	-1.025830e-14	
3.000000e-01	4.000000e-01	1.176591e+00	8.170811e+01	-1.190606e-14	2.561496e+05	1.013250e+05	3.000000e+02	2.000000e-01	-1.025830e-14	
3.000000e-01	3.000000e-01	1.176591e+00	8.170811e+01	-5.953029e-15	2.561496e+05	1.013250e+05	3.000000e+02	2.000000e-01	-1.025830e-14	
3.000000e-01	2.000000e-01	1.176591e+00	8.170811e+01	8.907265e-26	2.561496e+05	1.013250e+05	3.000000e+02	2.000000e-01	-1.025830e-14	
3.000000e-01	1.000000e-01	1.176591e+00	8.170811e+01	-2.046354e-14	2.561496e+05	1.013250e+05	3.000000e+02	2.000000e-01	-1.025830e-14	
4.000000e-01	9.000000e-01	1.176591e+00	8.170811e+01	2.827689e-14	2.561496e+05	1.013250e+05	3.000000e+02	2.000000e-01	-5.129151e-15	
4.000000e-01	8.000000e-01	1.176591e+00	8.170811e+01	2.381212e-14	2.561496e+05	1.013250e+05	3.000000e+02	2.000000e-01	-1.538745e-14	
4.000000e-01	7.000000e-01	1.176591e+00	8.170811e+01	1.190606e-14	2.561496e+05	1.013250e+05	3.000000e+02	2.000000e-01	-1.025830e-14	
4.000000e-01	6.000000e-01	1.176591e+00	8.170811e+01	-1.681048e-27	2.561496e+05	1.013250e+05	3.000000e+02	2.000000e-01	0.000000e+00	
4.000000e-01	5.000000e-01	1.176591e+00	8.170811e+01	-5.953029e-15	2.561496e+05	1.013250e+05	3.000000e+02	2.000000e-01	-5.129151e-15	
4.000000e-01	4.000000e-01	1.176591e+00	8.170811e+01	-1.190606e-14	2.561496e+05	1.013250e+05	3.000000e+02	2.000000e-01	-1.025830e-14	
4.000000e-01	3.000000e-01	1.176591e+00	8.170811e+01	-5.802151e-26	2.561496e+05	1.013250e+05	3.000000e+02	2.000000e-01	-5.129151e-15	
4.000000e-01	2.000000e-01	1.176591e+00	8.170811e+01	1.190606e-14	2.561496e+05	1.013250e+05	3.000000e+02	2.000000e-01	-1.025830e-14	
4.000000e-01	1.000000e-01	1.176591e+00	8.170811e+01	-1.860322e-14	2.561496e+05	1.013250e+05	3.000000e+02	2.000000e-01	0.000000e+00	
5.000000e-01	9.000000e-01	1.176591e+00	8.170811e+01	3.236960e-14	2.561496e+05	1.013250e+05	3.000000e+02	2.000000e-01	0.000000e+00	
5.000000e-01	8.000000e-01	1.176591e+00	8.170811e+01	2.381212e-14	2.561496e+05	1.013250e+05	3.000000e+02	2.000000e-01	0.000000e+00	
5.000000e-01	7.000000e-01	1.176591e+00	8.170811e+01	1.488257e-14	2.561496e+05	1.013250e+05	3.000000e+02	2.000000e-01	-1.025830e-14	
5.000000e-01	6.000000e-01	1.176591e+00	8.170811e+01	5.953029e-15	2.561496e+05	1.013250e+05	3.000000e+02	2.000000e-01	-5.129151e-15	
5.000000e-01	5.000000e-01	1.176591e+00	8.170811e+01	4.473709e-26	2.561496e+05	1.013250e+05	3.000000e+02	2.000000e-01	-5.129151e-15	
5.000000e-01	4.000000e-01	1.176591e+00	8.170811e+01	-5.953029e-15	2.561496e+05	1.013250e+05	3.000000e+02	2.000000e-01	-5.129151e-15	
5.000000e-01	3.000000e-01	1.176591e+00	8.170811e+01	-5.953029e-15	2.561496e+05	1.013250e+05	3.000000e+02	2.000000e-01	-5.129151e-15	
5.000000e-01	2.000000e-01	1.176591e+00	8.170811e+01	-5.953029e-15	2.561496e+05	1.013250e+05	3.000000e+02	2.000000e-01	-5.129151e-15	
5.000000e-01	1.000000e-01	1.176591e+00	8.170811e+01	-2.753276e-14	2.561496e+05	1.013250e+05	3.000000e+02	2.000000e-01	0.000000e+00	
6.000000e-01	9.000000e-01	1.176591e+00	8.170811e+01	3.646230e-14	2.561496e+05	1.013250e+05	3.000000e+02	2.000000e-01	0.000000e+00	
6.000000e-01	8.000000e-01	1.176591e+00	8.170811e+01	2.381212e-14	2.561496e+05	1.013250e+05	3.000000e+02	2.000000e-01	-5.129151e-15	
6.000000e-01	7.000000e-01	1.176591e+00	8.170811e+01	1.785909e-14	2.561496e+05	1.013250e+05	3.000000e+02	2.000000e-01	0.000000e+00	
6.000000e-01	6.000000e-01	1.176591e+00	8.170811e+01	1.190606e-14	2.561496e+05	1.013250e+05	3.000000e+02	2.000000e-01	0.000000e+00	
6.000000e-01	5.000000e-01	1.176591e+00	8.170811e+01	5.953029e-15	2.561496e+05	1.013250e+05	3.000000e+02	2.000000e-01	0.000000e+00	
6.000000e-01	4.000000e-01	1.176591e+00	8.170811e+01	5.944438e-26	2.561496e+05	1.013250e+05	3.000000e+02	2.000000e-01	-1.538745e-14	
6.000000e-01	3.000000e-01	1.176591e+00	8.170811e+01	-1.190606e-14	2.561496e+05	1.013250e+05	3.000000e+02	2.000000e-01	0.000000e+00	
6.000000e-01	2.000000e-01	1.176591e+00	8.170811e+01	-2.381212e-14	2.561496e+05	1.013250e+05	3.000000e+02	2.000000e-01	0.000000e+00	
6.000000e-01	1.000000e-01	1.176591e+00	8.170811e+01	-3.646230e-14	2.561496e+05	1.013250e+05	3.000000e+02	2.000000e-01	0.000000e+00	
7.000000e-01	9.000000e-01	1.176591e+00	8.170811e+01	3.646230e-14	2.561496e+05	1.013250e+05	3.000000e+02	2.000000e-01	0.000000e+00	
7.000000e-01	8.000000e-01	1.176591e+00	8.170811e+01	2.381212e-14	2.561496e+05	1.013250e+05	3.000000e+02	2.000000e-01	0.000000e+00	
7.000000e-01	7.000000e-01	1.176591e+00	8.170811e+01	1.785909e-14	2.561496e+05	1.013250e+05	3.000000e+02	2.000000e-01	0.000000e+00	
7.000000e-01	6.000000e-01	1.176591e+00	8.170811e+01	1.190606e-14	2.561496e+05	1.013250e+05	3.000000e+02	2.000000e-01	0.000000e+00	
7.000000e-01	5.000000e-01	1.176591e+00	8.170811e+01	2.976515e-15	2.561496e+05	1.013250e+05	3.000000e+02	2.000000e-01	0.000000e+00	
7.000000e-01	4.000000e-01	1.176591e+00	8.170811e+01	-5.953029e-15	2.561496e+05	1.013250e+05	3.000000e+02	2.000000e-01	-1.025830e-14	
7.000000e-01	3.000000e-01	1.176591e+00	8.170811e+01	-1.488257e-14	2.561496e+05	1.013250e+05	3.000000e+02	2.000000e-01	0.000000e+00	
7.000000e-01	2.000000e-01	1.176591e+00	8.170811e+01	-2.381212e-14	2.561496e+05	1.013250e+05	3.000000e+02	2.000000e-01	0.000000e+00	
7.000000e-01	1.000000e-01	1.176591e+00	8.170811e+01	-3.646230e-14	2.561496e+05	1.013250e+05	3.000000e+02	2.000000e-01	0.000000e+00	
8.000000e-01	9.000000e-01	1.176591e+00	8.170811e+01	3.646230e-14	2.561496e+05	1.013250e+05	3.000000e+02	2.000000e-01	0.000000e+00	
8.000000e-01	8.000000e-01	1.176591e+00	8.170811e+01	2.381212e-14	2.561496e+05	1.013250e+05	3.000000e+02	2.000000e-01	-5.129151e-15	
8.000000e-01	7.000000e-01	1.176591e+00	8.170811e+01	1.785909e-14	2.561496e+05	1.013250e+05	3.000000e+02	2.000000e-01	0.000000e+00	
8.000000e-01	6.000000e-01	1.176591e+00	8.170811e+01	1.190606e-14	2.561496e+05	1.013250e+05	3.000000e+02	2.000000e-01	-1.025830e-14	
8.000000e-01	5.000000e-01	1.176591e+00	8.170811e+01	1.723602e-25	2.561496e+05	1.013250e+05	3.000000e+02	2.000000e-01	0.000000e+00	
8.000000e-01	4.000000e-01	1.176591e+00	8.170811e+01	-1.190606e-14	2.561496e+05	1.013250e+05	3.000000e+02	2.000000e-01	-1.538745e-14	
8.000000e-01	3.000000e-01	1.176591e+00	8.170811e+01	-1.785909e-14	2.561496e+05	1.013250e+05	3.000000e+02	2.000000e-01	-5.129151e-15	
8.000000e-01	2.000000e-01	1.176591e+00	8.170811e+01	-2.381212e-14	2.561496e+05	1.013250e+05	3.000000e+02	2.000000e-01	0.000000e+00	
8.000000e-01	1.000000e-01	1.176591e+00	8.170811e+01	-3.646230e-14	2.561496e+05	1.013250e+05	3.000000e+02	2.000000e-01	5.129151e-15	
9.000000e-01	9.000000e-01	1.176591e+00	8.170811e+01	3.812775e-14	2.561496e+05	1.013250e+05	3.000000e+02	2.000000e-01	0.000000e+00	
9.000000e-01	8.000000e-01	1.176591e+00	8.170811e+01	2.788713e-14	2.561496e+05	1.013250e+05	3.000000e+02	2.000000e-01	0.000000e+00	
9.000000e-01	7.000000e-01	1.176591e+00	8.170811e+01	2.077204e-14	2.561496e+05	1.013250e+05	3.000000e+02	2.000000e-01	0.000000e+00	
9.000000e-01	6.000000e-01	1.176591e+00	8.170811e+01	1.365695e-14	2.561496e+05	1.013250e+05	3.000000e+02	2.000000e-01	0.000000e+00	
9.000000e-01	5.000000e-01	1.176591e+00	8.170811e+01	-2.783737e-15	2.561496e+05	1.013250e+05	3.000000e+02	2.000000e-01	0.000000e+00	
9.000000e-01	4.000000e-01	1.176591e+00	8.170811e+01	-1.922442e-14	2.561496e+05	1.013250e+05	3.000000e+02	2.000000e-01	0.000000e+00	
9.000000e-01	3.000000e-01	1.176591e+00	8.170811e+01	-2.269802e-14	2.561496e+05	1.013250e+05	3.000000e+02	2.000000e-01	0.000000e+00	
9.000000e-01	2.000000e-01	1.176591e+00	8.170811e+01	-2.617162e-14	2.561496e+05	1.013250e+05	3.000000e+02	2.000000e-01	0.000000e+00	
9.000000e-01	1.000000e-01	1.176591e+00	8.170811e+01	-3.610378e-14	2.561496e+05	1.013250e+05	3.000000e+02	2.000000e-01	0.000000e+00	
2	13	41	14
13	12	42	41
12	11	43	42
11	10	44	43
10	9	45	44
9	8	46	45
8	7	47	46
7	6	48	47
6	5	49	48
5	1	40	49
14	41	50	15
41	42	51	50
42	43	52	51
43	44	53	52
44	45	54	53
45	46	55	54
46	47	56	55
47	48	57	56
48	49	58	57
49	40	39	58
15	50	59	16
50	51	60	59
51	52	61	60
52	53	62	61
53	54	63	62
54	55	64	63
55	56	65	64
56	57	66	65
57	58	67	66
58	39	38	67
16	59	68	17
59	60	69	68
60	61	70	69
61	62	71	70
62	63	72	71
63	64	73	72
64	65	74	73
65	66	75	74
66	67	76	75
67	38	37	76
17	68	77	18
68	69	78	77
69	70	79	78
70	71	80	79
71	72	81	80
72	73	82	81
73	74	83	82
74	75	84	83
75	76	85	84
76	37	36	85
18	77	86	19
77	78	87	86
78	79	88	87
79	80	89	88
80	81	90	89
81	82	91	90
82	83	92	91
83	84	93	92
84	85	94	93
85	36	35	94
19	86	95	20
86	87	96	95
87	88	97	96
88	89	98	97
89	90	99	98
90	91	100	99
91	92	101	100
92	93	102	101
93	94	103	102
94	35	34	103
20	95	104	21
95	96	105	104
96	97	106	105
97	98	107	106
98	99	108	107
99	100	109	108
100	101	110	109
101	102	111	110
102	103	112	111
103	34	33	112
21	104	113	22
104	105	114	113
105	106	115	114
106	107	116	115
107	108	117	116
108	109	118	117
109	110	119	118
110	111	120	119
111	112	121	120
112	33	32	121
22	113	23	4
113	114	24	23
114	115	25	24
115	116	26	25
116	117	27	26
117	118	28	27
118	119	29	28
119	120	30	29
120	121	31	30
121	32	3	31
