TITLE = "SU2 Simulation"
VARIABLES = "Iteration","CL","CD","CSF","CMx","CMy","CMz","CFx","CFy","CFz","CL/CD","AoA","Custom_ObjFunc","Res_Flow[0]","Res_Flow[1]","Res_Flow[2]","Res_Flow[3]","Res_Flow[4]","Linear_Solver_Iterations","CFL_Number","Time(min)"
ZONE T= "Convergence history"
           0, -2.71203043e-03, 4.78204689e-04, 0.00000000e+00, 0.00000000e+00, 0.00000000e+00, -1.32926414e-03, 4.78204689e-04, -2.71203043e-03, 0.00000000e+00, -5.67127529e+00, 0.00000000e+00, 0.00000000e+00, 1.15542087e+00, -2.84453570e+00, 4.39356834e+00, -1.19600479e+01, 7.32860100e+00, 2.02327612e+00, 0.00000000e+00, 0.0000000000, 0.1000000000, 0.0000893831
