TITLE = "Visualization of the volumetric solution"
VARIABLES = "x","y","Density[0]","Density[1]","Momentum_x","Momentum_y","Energy","Electronic Energy","Total Density","Pressure","Temperature","Tve","Mach","C<sub>p</sub>","<greek>m</greek>","C<sub>f</sub>_x","C<sub>f</sub>_y","h"
ZONE NODES= 65, ELEMENTS= 48, DATAPACKING=POINT, ZONETYPE=FEQUADRILATERAL
0.000000e+00	0.000000e+00	3.067095e-04	3.067402e-08	0.000000e+00	0.000000e+00	3.103556e+02	1.519909e-03	3.067402e-04	1.617451e+02	1.776433e+03	2.787748e+02	0.000000e+00	9.837589e-01	5.913767e-05	0.000000e+00	0.000000e+00	0.000000e+00	
-5.000000e-02	0.000000e+00	1.041350e-04	1.041455e-08	1.801051e-01	3.110198e-04	1.462538e+02	7.681268e-04	1.041455e-04	8.971335e+00	2.902052e+02	2.881489e+02	4.979767e+00	5.955793e-04	1.754402e-05	0.000000e+00	0.000000e+00	0.000000e+00	
9.848077e-01	1.736484e-01	2.792880e-05	2.793160e-09	0.000000e+00	0.000000e+00	-5.093202e+00	1.924622e-04	2.793160e-05	1.385746e+00	1.671384e+02	2.865013e+02	0.000000e+00	-4.822086e-02	1.331419e-05	0.000000e+00	0.000000e+00	0.000000e+00	
9.848077e-01	5.209451e-01	1.040161e-04	1.040265e-08	1.798645e-01	4.958755e-04	1.463299e+02	7.672559e-04	1.040265e-04	9.082201e+00	2.941275e+02	2.881491e+02	4.945505e+00	1.309045e-03	1.766218e-05	0.000000e+00	0.000000e+00	0.000000e+00	
0.000000e+00	1.000000e-01	1.039065e-04	1.039168e-08	1.798086e-01	3.046598e-05	1.459369e+02	7.664752e-04	1.039168e-04	8.885059e+00	2.880466e+02	2.881500e+02	5.001134e+00	4.035792e-05	1.747865e-05	0.000000e+00	0.000000e+00	0.000000e+00	
-5.000000e-02	1.000000e-01	1.038354e-04	1.038458e-08	1.796728e-01	1.823191e-05	1.458268e+02	7.659505e-04	1.038458e-04	8.883757e+00	2.882014e+02	2.881500e+02	4.999433e+00	3.197981e-05	1.748334e-05	0.000000e+00	0.000000e+00	0.000000e+00	
-3.096616e-02	0.000000e+00	1.039546e-04	1.039650e-08	1.799356e-01	1.048872e-04	1.459418e+02	7.669078e-04	1.039650e-04	8.833774e+00	2.862514e+02	2.881525e+02	5.018012e+00	-2.896821e-04	1.742410e-05	0.000000e+00	0.000000e+00	0.000000e+00	
-1.440672e-02	0.000000e+00	1.209108e-04	1.209229e-08	2.160586e-01	-2.993104e-04	1.605036e+02	9.100761e-04	1.209229e-04	1.811668e+00	5.047292e+01	2.886420e+02	1.233700e+01	-4.547987e-02	7.316539e-06	0.000000e+00	0.000000e+00	0.000000e+00	
1.055427e-01	1.861004e-02	7.853477e-05	7.854263e-09	0.000000e+00	0.000000e+00	3.682724e+01	2.634403e-06	7.854263e-05	2.435815e+01	1.044786e+03	1.979137e+02	0.000000e+00	9.961615e-02	4.193986e-05	0.000000e+00	0.000000e+00	0.000000e+00	
2.120352e-01	3.738757e-02	6.658851e-05	6.659517e-09	0.000000e+00	0.000000e+00	2.272157e+01	2.961276e-06	6.659517e-05	1.725117e+01	8.726982e+02	2.012080e+02	0.000000e+00	5.387975e-02	3.722347e-05	0.000000e+00	0.000000e+00	0.000000e+00	
3.194862e-01	5.633410e-02	5.432949e-05	5.433493e-09	0.000000e+00	0.000000e+00	7.352838e+00	4.567926e-06	5.433493e-05	9.600590e+00	5.952607e+02	2.090685e+02	0.000000e+00	4.645098e-03	2.913992e-05	0.000000e+00	0.000000e+00	0.000000e+00	
4.279042e-01	7.545115e-02	4.273622e-05	4.274050e-09	0.000000e+00	0.000000e+00	-6.700840e+00	5.370367e-06	4.274050e-05	2.557677e+00	2.016018e+02	2.143521e+02	0.000000e+00	-4.067900e-02	1.462257e-05	0.000000e+00	0.000000e+00	0.000000e+00	
5.372980e-01	9.474025e-02	3.838775e-05	3.839159e-09	0.000000e+00	0.000000e+00	-1.018314e+01	5.223452e-05	3.839159e-05	6.316306e-01	5.542625e+01	2.521224e+02	0.000000e+00	-5.307391e-02	7.667154e-06	0.000000e+00	0.000000e+00	0.000000e+00	
6.476764e-01	1.142030e-01	3.682528e-05	3.682896e-09	0.000000e+00	0.000000e+00	-9.881129e+00	1.376250e-04	3.682896e-05	5.608972e-01	5.130766e+01	2.724865e+02	0.000000e+00	-5.352911e-02	7.376792e-06	0.000000e+00	0.000000e+00	0.000000e+00	
7.590482e-01	1.338408e-01	3.559318e-05	3.559674e-09	0.000000e+00	0.000000e+00	-9.576366e+00	2.461684e-04	3.559674e-05	5.317495e-01	5.032517e+01	2.865885e+02	0.000000e+00	-5.371669e-02	7.305822e-06	0.000000e+00	0.000000e+00	0.000000e+00	
8.714223e-01	1.536554e-01	3.562165e-05	3.562521e-09	0.000000e+00	0.000000e+00	-7.367705e+00	3.999810e-04	3.562521e-05	1.418711e+00	1.341606e+02	2.987618e+02	0.000000e+00	-4.800872e-02	1.192858e-05	0.000000e+00	0.000000e+00	0.000000e+00	
9.848077e-01	2.560449e-01	1.948330e-04	1.948525e-08	2.871950e-01	9.144492e-02	2.915459e+02	1.686455e-03	1.948525e-04	4.725747e+01	8.170579e+02	2.920993e+02	2.654537e+00	2.469829e-01	3.563710e-05	0.000000e+00	0.000000e+00	0.000000e+00	
9.848077e-01	3.413253e-01	2.258595e-04	2.258821e-08	3.690822e-01	8.111317e-02	3.274861e+02	1.667431e-03	2.258821e-04	3.223944e+01	4.808326e+02	2.881699e+02	3.742503e+00	1.503355e-01	2.466309e-05	0.000000e+00	0.000000e+00	0.000000e+00	
9.848077e-01	4.295906e-01	1.017515e-04	1.017617e-08	1.769066e-01	-3.804018e-03	1.409443e+02	7.506264e-04	1.017617e-04	7.312071e+00	2.420719e+02	2.881516e+02	5.482304e+00	-1.008248e-02	1.602318e-05	0.000000e+00	0.000000e+00	0.000000e+00	
8.709344e-01	4.722712e-01	1.042096e-04	1.042200e-08	1.802003e-01	4.162257e-04	1.464603e+02	7.687007e-04	1.042200e-04	9.041649e+00	2.922705e+02	2.881497e+02	4.961220e+00	1.048078e-03	1.760633e-05	0.000000e+00	0.000000e+00	0.000000e+00	
7.581998e-01	4.240841e-01	1.042214e-04	1.042318e-08	1.802193e-01	3.990129e-04	1.464507e+02	7.687928e-04	1.042318e-04	9.033209e+00	2.919646e+02	2.881498e+02	4.963778e+00	9.937634e-04	1.759712e-05	0.000000e+00	0.000000e+00	0.000000e+00	
6.465926e-01	3.763788e-01	1.042496e-04	1.042600e-08	1.802617e-01	3.599159e-04	1.464319e+02	7.690058e-04	1.042600e-04	9.016733e+00	2.913532e+02	2.881500e+02	4.968806e+00	8.877335e-04	1.757868e-05	0.000000e+00	0.000000e+00	0.000000e+00	
5.361014e-01	3.291506e-01	1.042272e-04	1.042377e-08	1.802240e-01	3.084466e-04	1.463584e+02	7.688430e-04	1.042377e-04	8.997356e+00	2.907894e+02	2.881501e+02	4.973643e+00	7.630353e-04	1.756167e-05	0.000000e+00	0.000000e+00	0.000000e+00	
4.267152e-01	2.823947e-01	1.041014e-04	1.041118e-08	1.799968e-01	2.757221e-04	1.461770e+02	7.679162e-04	1.041118e-04	8.991286e+00	2.909446e+02	2.881501e+02	4.972051e+00	7.239695e-04	1.756635e-05	0.000000e+00	0.000000e+00	0.000000e+00	
3.184228e-01	2.361063e-01	1.038978e-04	1.039082e-08	1.795624e-01	3.040013e-04	1.458813e+02	7.664181e-04	1.039082e-04	9.026708e+00	2.926632e+02	2.881502e+02	4.955159e+00	9.519294e-04	1.761816e-05	0.000000e+00	0.000000e+00	0.000000e+00	
2.112134e-01	1.902808e-01	1.037943e-04	1.038047e-08	1.792887e-01	2.642217e-04	1.456530e+02	7.656583e-04	1.038047e-04	9.050104e+00	2.937143e+02	2.881504e+02	4.943668e+00	1.102489e-03	1.764977e-05	0.000000e+00	0.000000e+00	0.000000e+00	
1.050760e-01	1.449136e-01	1.037194e-04	1.037298e-08	1.792428e-01	1.696663e-06	1.455426e+02	7.651082e-04	1.037298e-04	8.983869e+00	2.917751e+02	2.881504e+02	4.962374e+00	6.762390e-04	1.759141e-05	0.000000e+00	0.000000e+00	0.000000e+00	
-1.467610e-02	1.000000e-01	1.038839e-04	1.038943e-08	1.797547e-01	4.143585e-05	1.458989e+02	7.663077e-04	1.038943e-04	8.890870e+00	2.882977e+02	2.881500e+02	4.998544e+00	7.775522e-05	1.748626e-05	0.000000e+00	0.000000e+00	0.000000e+00	
-3.126009e-02	1.000000e-01	1.038035e-04	1.038139e-08	1.796222e-01	-2.240060e-06	1.457859e+02	7.657155e-04	1.038139e-04	8.879424e+00	2.881493e+02	2.881500e+02	5.000011e+00	4.093675e-06	1.748176e-05	0.000000e+00	0.000000e+00	0.000000e+00	
-5.000000e-02	7.304491e-02	1.037206e-04	1.037310e-08	1.794853e-01	-2.201217e-05	1.456698e+02	7.651056e-04	1.037310e-04	8.867967e+00	2.880075e+02	2.881501e+02	5.001423e+00	-6.963983e-05	1.747746e-05	0.000000e+00	0.000000e+00	0.000000e+00	
-5.000000e-02	4.743758e-02	1.034974e-04	1.035078e-08	1.791784e-01	-2.422861e-04	1.453921e+02	7.635260e-04	1.035078e-04	8.808155e+00	2.866820e+02	2.881522e+02	5.015199e+00	-4.545534e-04	1.743720e-05	0.000000e+00	0.000000e+00	0.000000e+00	
-5.000000e-02	2.311062e-02	1.034763e-04	1.034866e-08	1.793937e-01	-1.077088e-04	1.457104e+02	7.634902e-04	1.034866e-04	8.771055e+00	2.855328e+02	2.881560e+02	5.032345e+00	-6.933087e-04	1.740221e-05	0.000000e+00	0.000000e+00	0.000000e+00	
0.000000e+00	7.304491e-02	1.039837e-04	1.039941e-08	1.798455e-01	2.314302e-04	1.460072e+02	7.670168e-04	1.039941e-04	8.943244e+00	2.897176e+02	2.881491e+02	4.984014e+00	4.148039e-04	1.752927e-05	0.000000e+00	0.000000e+00	0.000000e+00	
0.000000e+00	4.743758e-02	1.024815e-04	1.024917e-08	1.757862e-01	1.512176e-03	1.435985e+02	7.544321e-04	1.024917e-04	9.696596e+00	3.187270e+02	2.881006e+02	4.712788e+00	5.262936e-03	1.854798e-05	0.000000e+00	0.000000e+00	0.000000e+00	
0.000000e+00	2.311062e-02	1.183110e-04	1.183229e-08	1.799027e-01	2.310830e-02	1.627789e+02	8.466181e-04	1.183229e-04	2.400465e+01	6.834630e+02	2.874119e+02	2.876341e+00	9.734125e-02	3.178797e-05	0.000000e+00	0.000000e+00	0.000000e+00	
1.054319e-01	4.802706e-02	1.801450e-04	1.801630e-08	2.574491e-01	8.976425e-02	2.366609e+02	1.212616e-03	1.801630e-04	3.422275e+01	6.399377e+02	2.859373e+02	2.934575e+00	1.630990e-01	3.051339e-05	0.000000e+00	0.000000e+00	0.000000e+00	
1.053174e-01	7.883747e-02	1.519667e-04	1.519819e-08	2.521222e-01	2.444447e-02	2.091220e+02	1.121919e-03	1.519819e-04	1.783979e+01	3.954450e+02	2.881701e+02	4.111337e+00	5.766777e-02	2.143384e-05	0.000000e+00	0.000000e+00	0.000000e+00	
1.051987e-01	1.111092e-01	1.034275e-04	1.034379e-08	1.796416e-01	-5.377941e-04	1.455415e+02	7.629115e-04	1.034379e-04	8.495584e+00	2.766954e+02	2.881490e+02	5.121575e+00	-2.466080e-03	1.713079e-05	0.000000e+00	0.000000e+00	0.000000e+00	
2.118402e-01	7.317947e-02	2.062629e-04	2.062836e-08	2.843878e-01	9.760634e-02	2.712229e+02	1.347347e-03	2.062836e-04	4.612248e+01	7.532452e+02	2.852187e+02	2.605163e+00	2.396787e-01	3.380786e-05	0.000000e+00	0.000000e+00	0.000000e+00	
2.116384e-01	1.105438e-01	2.100260e-04	2.100470e-08	3.374632e-01	6.502162e-02	2.894683e+02	1.549131e-03	2.100470e-04	2.907029e+01	4.662526e+02	2.881477e+02	3.716978e+00	1.299408e-01	2.410722e-05	0.000000e+00	0.000000e+00	0.000000e+00	
2.114295e-01	1.495525e-01	1.028958e-04	1.029061e-08	1.795154e-01	-2.118695e-03	1.447870e+02	7.589798e-04	1.029061e-04	7.886014e+00	2.581695e+02	2.881487e+02	5.326154e+00	-6.388917e-03	1.654737e-05	0.000000e+00	0.000000e+00	0.000000e+00	
3.192339e-01	9.857011e-02	2.038376e-04	2.038580e-08	2.840416e-01	8.933183e-02	2.778115e+02	1.345134e-03	2.038580e-04	4.912860e+01	8.118859e+02	2.854620e+02	2.514568e+00	2.590244e-01	3.548930e-05	0.000000e+00	0.000000e+00	0.000000e+00	
3.189728e-01	1.425597e-01	2.419989e-04	2.420231e-08	3.863134e-01	9.259899e-02	3.402783e+02	1.783841e-03	2.420231e-04	3.536196e+01	4.922297e+02	2.881325e+02	3.629154e+00	1.704303e-01	2.509941e-05	0.000000e+00	0.000000e+00	0.000000e+00	
3.187025e-01	1.883786e-01	1.058593e-04	1.058699e-08	1.841771e-01	-1.496749e-03	1.481169e+02	7.808785e-04	1.058699e-04	8.136169e+00	2.589023e+02	2.881500e+02	5.303773e+00	-4.779062e-03	1.657084e-05	0.000000e+00	0.000000e+00	0.000000e+00	
4.276221e-01	1.242012e-01	1.976355e-04	1.976553e-08	2.806777e-01	8.283111e-02	2.787869e+02	1.348848e-03	1.976553e-04	4.908370e+01	8.365988e+02	2.862689e+02	2.511013e+00	2.587355e-01	3.619492e-05	0.000000e+00	0.000000e+00	0.000000e+00	
4.273302e-01	1.748880e-01	2.505679e-04	2.505929e-08	4.018934e-01	1.023532e-01	3.592651e+02	1.847568e-03	2.505929e-04	3.714819e+01	4.994100e+02	2.881399e+02	3.632746e+00	1.819254e-01	2.537518e-05	0.000000e+00	0.000000e+00	0.000000e+00	
4.270280e-01	2.275914e-01	1.079988e-04	1.080096e-08	1.872146e-01	-6.822411e-04	1.503290e+02	7.966504e-04	1.080096e-04	8.467242e+00	2.640998e+02	2.881496e+02	5.232045e+00	-2.648468e-03	1.673634e-05	0.000000e+00	0.000000e+00	0.000000e+00	
5.370142e-01	1.500751e-01	1.958879e-04	1.959075e-08	2.808680e-01	8.292944e-02	2.825883e+02	1.400198e-03	1.959075e-04	4.949122e+01	8.510701e+02	2.873851e+02	2.513589e+00	2.613580e-01	3.660750e-05	0.000000e+00	0.000000e+00	0.000000e+00	
5.367203e-01	2.075319e-01	2.491840e-04	2.492089e-08	4.019312e-01	1.021592e-01	3.610938e+02	1.838672e-03	2.492089e-04	3.695510e+01	4.995734e+02	2.881572e+02	3.652226e+00	1.806829e-01	2.538146e-05	0.000000e+00	0.000000e+00	0.000000e+00	
5.364162e-01	2.671946e-01	1.073358e-04	1.073465e-08	1.859697e-01	-1.142570e-03	1.490020e+02	7.917139e-04	1.073465e-04	8.318245e+00	2.610551e+02	2.881482e+02	5.259830e+00	-3.607328e-03	1.663959e-05	0.000000e+00	0.000000e+00	0.000000e+00	
6.474193e-01	1.761941e-01	1.968492e-04	1.968689e-08	2.830516e-01	8.648634e-02	2.874606e+02	1.481613e-03	1.968689e-04	5.012238e+01	8.577150e+02	2.886414e+02	2.518107e+00	2.654198e-01	3.679683e-05	0.000000e+00	0.000000e+00	0.000000e+00	
6.471531e-01	2.404945e-01	2.454702e-04	2.454948e-08	3.972105e-01	9.865644e-02	3.566023e+02	1.812487e-03	2.454948e-04	3.626156e+01	4.976140e+02	2.881736e+02	3.666115e+00	1.762196e-01	2.530614e-05	0.000000e+00	0.000000e+00	0.000000e+00	
6.468777e-01	3.071922e-01	1.054667e-04	1.054773e-08	1.829367e-01	-2.189069e-03	1.461856e+02	7.778893e-04	1.054773e-04	7.935620e+00	2.534606e+02	2.881470e+02	5.344327e+00	-6.069679e-03	1.639576e-05	0.000000e+00	0.000000e+00	0.000000e+00	
7.588469e-01	2.025605e-01	1.982652e-04	1.982851e-08	2.856963e-01	9.008534e-02	2.914305e+02	1.569375e-03	1.982851e-04	5.036134e+01	8.556491e+02	2.898781e+02	2.533524e+00	2.669576e-01	3.673797e-05	0.000000e+00	0.000000e+00	0.000000e+00	
7.586386e-01	2.737788e-01	2.406439e-04	2.406680e-08	3.902079e-01	9.390572e-02	3.491362e+02	1.777327e-03	2.406680e-04	3.528901e+01	4.939803e+02	2.881801e+02	3.680643e+00	1.699609e-01	2.516658e-05	0.000000e+00	0.000000e+00	0.000000e+00	
7.584230e-01	3.475880e-01	1.037273e-04	1.037377e-08	1.801373e-01	-3.092018e-03	1.436578e+02	7.650790e-04	1.037377e-04	7.597337e+00	2.467251e+02	2.881476e+02	5.423752e+00	-8.246673e-03	1.617645e-05	0.000000e+00	0.000000e+00	0.000000e+00	
8.713065e-01	2.291766e-01	1.995279e-04	1.995479e-08	2.864673e-01	9.312087e-02	2.939403e+02	1.684077e-03	1.995479e-04	5.109331e+01	8.625917e+02	2.914693e+02	2.521233e+00	2.716681e-01	3.693573e-05	0.000000e+00	0.000000e+00	0.000000e+00	
8.711867e-01	3.073880e-01	2.396400e-04	2.396640e-08	3.883141e-01	9.251290e-02	3.470193e+02	1.771445e-03	2.396640e-04	3.520548e+01	4.948754e+02	2.882012e+02	3.672788e+00	1.694233e-01	2.520094e-05	0.000000e+00	0.000000e+00	0.000000e+00	
8.710627e-01	3.883862e-01	1.029272e-04	1.029375e-08	1.788567e-01	-3.432071e-03	1.425215e+02	7.591567e-04	1.029375e-04	7.447222e+00	2.437300e+02	2.881470e+02	5.460499e+00	-9.212729e-03	1.607796e-05	0.000000e+00	0.000000e+00	0.000000e+00	
-1.460349e-02	7.304491e-02	1.037250e-04	1.037353e-08	1.795049e-01	5.201429e-05	1.456777e+02	7.651427e-04	1.037353e-04	8.860687e+00	2.877591e+02	2.881502e+02	5.003919e+00	-1.164847e-04	1.746992e-05	0.000000e+00	0.000000e+00	0.000000e+00	
-1.453450e-02	4.743758e-02	1.024106e-04	1.024209e-08	1.775964e-01	-1.262187e-03	1.438620e+02	7.557909e-04	1.024209e-04	8.503747e+00	2.797115e+02	2.881613e+02	5.086004e+00	-2.413543e-03	1.722390e-05	0.000000e+00	0.000000e+00	0.000000e+00	
-1.446897e-02	2.311062e-02	1.013166e-04	1.013267e-08	1.803904e-01	-6.325109e-03	1.424235e+02	7.537169e-04	1.013267e-04	5.078787e+00	1.688590e+02	2.883561e+02	6.724644e+00	-2.445460e-02	1.338254e-05	0.000000e+00	0.000000e+00	0.000000e+00	
-3.118086e-02	7.304491e-02	1.037865e-04	1.037969e-08	1.795875e-01	1.352674e-06	1.457568e+02	7.655885e-04	1.037969e-04	8.879546e+00	2.882005e+02	2.881500e+02	4.999419e+00	4.879904e-06	1.748332e-05	0.000000e+00	0.000000e+00	0.000000e+00	
-3.110559e-02	4.743758e-02	1.038082e-04	1.038185e-08	1.795726e-01	6.742572e-05	1.457890e+02	7.656821e-04	1.038185e-04	8.918298e+00	2.893979e+02	2.881479e+02	4.987614e+00	2.542659e-04	1.751960e-05	0.000000e+00	0.000000e+00	0.000000e+00	
-3.103409e-02	2.311062e-02	1.039158e-04	1.039262e-08	1.799636e-01	-1.777133e-04	1.458915e+02	7.668038e-04	1.039262e-04	8.766312e+00	2.841713e+02	2.881583e+02	5.039006e+00	-7.238280e-04	1.736067e-05	0.000000e+00	0.000000e+00	0.000000e+00	
1	9	36	35
35	36	37	34
34	37	38	33
33	38	27	5
9	10	39	36
36	39	40	37
37	40	41	38
38	41	26	27
10	11	42	39
39	42	43	40
40	43	44	41
41	44	25	26
11	12	45	42
42	45	46	43
43	46	47	44
44	47	24	25
12	13	48	45
45	48	49	46
46	49	50	47
47	50	23	24
13	14	51	48
48	51	52	49
49	52	53	50
50	53	22	23
14	15	54	51
51	54	55	52
52	55	56	53
53	56	21	22
15	16	57	54
54	57	58	55
55	58	59	56
56	59	20	21
16	3	17	57
57	17	18	58
58	18	19	59
59	19	4	20
5	28	60	33
33	60	61	34
34	61	62	35
35	62	8	1
28	29	63	60
60	63	64	61
61	64	65	62
62	65	7	8
29	6	30	63
63	30	31	64
64	31	32	65
65	32	2	7
