TITLE = "Visualization of the surface solution"
VARIABLES = "x","y","Density[0]","Density[1]","Density[2]","Density[3]","Density[4]","Momentum_x","Momentum_y","Energy","Electronic Energy","Total Density","Pressure","Temperature","Tve","Mach","C<sub>p</sub>","<greek>m</greek>","C<sub>f</sub>_x","C<sub>f</sub>_y","h"
ZONE NODES= 5, ELEMENTS= 4, DATAPACKING=POINT, ZONETYPE=FELINESEG
9.848077e-01	1.736484e-01	0.000000e+00	0.000000e+00	0.000000e+00	2.266924e-05	6.025999e-06	0.000000e+00	0.000000e+00	-5.366557e+00	6.646401e-03	2.869523e-05	1.313538e+00	1.583707e+02	3.496784e+02	0.000000e+00	-4.840894e-02	1.335637e-05	0.000000e+00	0.000000e+00	0.000000e+00	
9.848077e-01	5.209451e-01	0.000000e+00	0.000000e+00	0.000000e+00	8.298118e-05	2.205829e-05	1.792170e-01	5.361792e-04	1.435975e+02	5.441458e-03	1.050395e-04	8.956420e+00	2.950013e+02	2.881441e+02	4.938259e+00	1.435392e-03	1.822901e-05	0.000000e+00	0.000000e+00	0.000000e+00	
9.848077e-01	2.560449e-01	0.000000e+00	0.000000e+00	0.000000e+00	1.556157e-04	4.136619e-05	2.869392e-01	9.126260e-02	2.861620e+02	1.763310e-02	1.969818e-04	4.617654e+01	8.110306e+02	3.082113e+02	2.668254e+00	2.441726e-01	3.674157e-05	0.000000e+00	0.000000e+00	0.000000e+00	
9.848077e-01	3.413253e-01	0.000000e+00	0.000000e+00	0.000000e+00	1.782028e-04	4.737037e-05	3.640844e-01	7.862336e-02	3.173407e+02	1.170455e-02	2.255732e-04	3.114254e+01	4.776487e+02	2.882002e+02	3.755905e+00	1.461259e-01	2.543930e-05	0.000000e+00	0.000000e+00	0.000000e+00	
9.848077e-01	4.295906e-01	0.000000e+00	0.000000e+00	0.000000e+00	8.104728e-05	2.154421e-05	1.760141e-01	-3.865271e-03	1.380588e+02	5.318535e-03	1.025915e-04	7.175849e+00	2.419937e+02	2.881694e+02	5.483979e+00	-1.017690e-02	1.651023e-05	0.000000e+00	0.000000e+00	0.000000e+00	
1	3
3	4
4	5
5	2
