TITLE = "Visualization of the surface solution"
VARIABLES = "x","y","Density[0]","Density[1]","Momentum_x","Momentum_y","Energy","Electronic Energy","Total Density","Pressure","Temperature","Tve","Mach","C<sub>p</sub>","<greek>m</greek>","C<sub>f</sub>_x","C<sub>f</sub>_y","h"
ZONE NODES= 5, ELEMENTS= 4, DATAPACKING=POINT, ZONETYPE=FELINESEG
9.848077e-01	1.736484e-01	1.214703e+00	1.214824e-04	2.101927e+03	-1.339822e-15	1.708557e+06	8.960357e+00	1.214824e+00	1.049395e+05	2.910141e+02	2.881500e+02	4.975335e+00	2.038391e-03	6.268251e-310	0.000000e+00	0.000000e+00	0.000000e+00	
9.848077e-01	5.209451e-01	1.184521e+00	1.184640e-04	2.049700e+03	0.000000e+00	1.663587e+06	8.737721e+00	1.184640e+00	1.013250e+05	2.881500e+02	2.881500e+02	5.000000e+00	-3.282583e-17	6.268251e-310	0.000000e+00	0.000000e+00	0.000000e+00	
9.848077e-01	2.560449e-01	1.184521e+00	1.184640e-04	2.049700e+03	9.356855e-16	1.663587e+06	8.737721e+00	1.184640e+00	1.013250e+05	2.881500e+02	2.881500e+02	5.000000e+00	-3.282583e-17	6.268251e-310	0.000000e+00	0.000000e+00	0.000000e+00	
9.848077e-01	3.413253e-01	1.184521e+00	1.184640e-04	2.049700e+03	9.106660e-16	1.663587e+06	8.737721e+00	1.184640e+00	1.013250e+05	2.881500e+02	2.881500e+02	5.000000e+00	-3.282583e-17	6.268251e-310	0.000000e+00	0.000000e+00	0.000000e+00	
9.848077e-01	4.295906e-01	1.184521e+00	1.184640e-04	2.049700e+03	0.000000e+00	1.663587e+06	8.737721e+00	1.184640e+00	1.013250e+05	2.881500e+02	2.881500e+02	5.000000e+00	-3.282583e-17	6.268251e-310	0.000000e+00	0.000000e+00	0.000000e+00	
1	3
3	4
4	5
5	2
