TITLE = "Visualization of the volumetric solution"
VARIABLES = "x","y","Density[0]","Density[1]","Density[2]","Density[3]","Density[4]","Momentum_x","Momentum_y","Energy","Electronic Energy","Total Density","Pressure","Temperature","Tve","Mach","C<sub>p</sub>","<greek>m</greek>","C<sub>f</sub>_x","C<sub>f</sub>_y","h"
ZONE NODES= 65, ELEMENTS= 48, DATAPACKING=POINT, ZONETYPE=FEQUADRILATERAL
0.000000e+00	0.000000e+00	0.000000e+00	0.000000e+00	0.000000e+00	2.440791e-04	6.488179e-05	0.000000e+00	0.000000e+00	2.942384e+02	3.788826e-02	3.089609e-04	1.549641e+02	1.735280e+03	3.209310e+02	0.000000e+00	9.536489e-01	6.039155e-05	0.000000e+00	0.000000e+00	0.000000e+00	
-5.000000e-02	0.000000e+00	0.000000e+00	0.000000e+00	0.000000e+00	8.316433e-05	2.210697e-05	1.796428e-01	3.304744e-04	1.436074e+02	5.455365e-03	1.052713e-04	8.833124e+00	2.902995e+02	2.881561e+02	4.978911e+00	6.312938e-04	1.808316e-05	0.000000e+00	0.000000e+00	0.000000e+00	
9.848077e-01	1.736484e-01	0.000000e+00	0.000000e+00	0.000000e+00	2.266924e-05	6.025999e-06	0.000000e+00	0.000000e+00	-5.366557e+00	6.646401e-03	2.869523e-05	1.313538e+00	1.583707e+02	3.496784e+02	0.000000e+00	-4.840894e-02	1.335637e-05	0.000000e+00	0.000000e+00	0.000000e+00	
9.848077e-01	5.209451e-01	0.000000e+00	0.000000e+00	0.000000e+00	8.298118e-05	2.205829e-05	1.792170e-01	5.361792e-04	1.435975e+02	5.441458e-03	1.050395e-04	8.956420e+00	2.950013e+02	2.881441e+02	4.938259e+00	1.435392e-03	1.822901e-05	0.000000e+00	0.000000e+00	0.000000e+00	
0.000000e+00	1.000000e-01	0.000000e+00	0.000000e+00	0.000000e+00	8.295772e-05	2.205205e-05	1.792964e-01	2.800854e-05	1.432509e+02	5.440755e-03	1.050098e-04	8.743279e+00	2.880624e+02	2.881494e+02	5.000985e+00	4.535611e-05	1.801335e-05	0.000000e+00	0.000000e+00	0.000000e+00	
-5.000000e-02	1.000000e-01	0.000000e+00	0.000000e+00	0.000000e+00	8.289948e-05	2.203657e-05	1.791581e-01	1.903328e-05	1.431398e+02	5.437025e-03	1.049361e-04	8.741396e+00	2.882027e+02	2.881500e+02	4.999422e+00	3.307497e-05	1.801773e-05	0.000000e+00	0.000000e+00	0.000000e+00	
-3.096616e-02	0.000000e+00	0.000000e+00	0.000000e+00	0.000000e+00	8.297457e-05	2.205653e-05	1.793828e-01	8.569378e-05	1.432189e+02	5.439929e-03	1.050311e-04	8.686456e+00	2.861322e+02	2.881372e+02	5.019224e+00	-3.252229e-04	1.795290e-05	0.000000e+00	0.000000e+00	0.000000e+00	
-1.440672e-02	0.000000e+00	0.000000e+00	0.000000e+00	0.000000e+00	9.639775e-05	2.562472e-05	2.153098e-01	-2.663752e-04	1.575836e+02	5.981626e-03	1.220225e-04	1.772856e+00	5.026614e+01	2.862490e+02	1.237210e+01	-4.541342e-02	7.524695e-06	0.000000e+00	0.000000e+00	0.000000e+00	
1.055427e-01	1.861004e-02	0.000000e+00	0.000000e+00	0.000000e+00	4.449532e-05	1.182787e-05	0.000000e+00	0.000000e+00	-2.816756e-01	1.810187e-05	5.632320e-05	6.684160e+00	4.105836e+02	1.768424e+02	0.000000e+00	-1.338353e-02	2.275462e-05	0.000000e+00	0.000000e+00	0.000000e+00	
2.120352e-01	3.738757e-02	0.000000e+00	0.000000e+00	0.000000e+00	3.587436e-05	9.536222e-06	0.000000e+00	0.000000e+00	-1.082619e+01	4.949265e-04	4.541058e-05	1.149284e+00	8.756132e+01	2.422342e+02	0.000000e+00	-4.948015e-02	9.931327e-06	0.000000e+00	0.000000e+00	0.000000e+00	
3.194862e-01	5.633410e-02	0.000000e+00	0.000000e+00	0.000000e+00	3.485060e-05	9.264083e-06	0.000000e+00	0.000000e+00	-9.818730e+00	1.658866e-03	4.411468e-05	1.395417e+00	1.094367e+02	2.774573e+02	0.000000e+00	-4.787495e-02	1.110280e-05	0.000000e+00	0.000000e+00	0.000000e+00	
4.279042e-01	7.545115e-02	0.000000e+00	0.000000e+00	0.000000e+00	3.255532e-05	8.653946e-06	0.000000e+00	0.000000e+00	-1.090791e+01	3.049794e-03	4.120927e-05	6.085767e-01	5.109312e+01	3.009527e+02	0.000000e+00	-5.300646e-02	7.586341e-06	0.000000e+00	0.000000e+00	0.000000e+00	
5.372980e-01	9.474025e-02	0.000000e+00	0.000000e+00	0.000000e+00	3.196521e-05	8.497080e-06	0.000000e+00	0.000000e+00	-9.230282e+00	5.135810e-03	4.046229e-05	1.188650e+00	1.016356e+02	3.223796e+02	0.000000e+00	-4.922341e-02	1.069976e-05	0.000000e+00	0.000000e+00	0.000000e+00	
6.476764e-01	1.142030e-01	0.000000e+00	0.000000e+00	0.000000e+00	3.064616e-05	8.146446e-06	0.000000e+00	0.000000e+00	-8.957761e+00	7.573436e-03	3.879260e-05	1.095193e+00	9.767510e+01	3.415162e+02	0.000000e+00	-4.983291e-02	1.048922e-05	0.000000e+00	0.000000e+00	0.000000e+00	
7.590482e-01	1.338408e-01	0.000000e+00	0.000000e+00	0.000000e+00	2.970986e-05	7.897558e-06	0.000000e+00	0.000000e+00	-8.461399e+00	1.044715e-02	3.760742e-05	1.149566e+00	1.057554e+02	3.587431e+02	0.000000e+00	-4.947831e-02	1.091446e-05	0.000000e+00	0.000000e+00	0.000000e+00	
8.714223e-01	1.536554e-01	0.000000e+00	0.000000e+00	0.000000e+00	2.823877e-05	7.506509e-06	0.000000e+00	0.000000e+00	-8.911459e+00	1.352967e-02	3.574528e-05	7.435942e-01	7.197130e+01	3.751497e+02	0.000000e+00	-5.212592e-02	9.003903e-06	0.000000e+00	0.000000e+00	0.000000e+00	
9.848077e-01	2.560449e-01	0.000000e+00	0.000000e+00	0.000000e+00	1.556157e-04	4.136619e-05	2.869392e-01	9.126260e-02	2.861620e+02	1.763310e-02	1.969818e-04	4.617654e+01	8.110306e+02	3.082113e+02	2.668254e+00	2.441726e-01	3.674157e-05	0.000000e+00	0.000000e+00	0.000000e+00	
9.848077e-01	3.413253e-01	0.000000e+00	0.000000e+00	0.000000e+00	1.782028e-04	4.737037e-05	3.640844e-01	7.862336e-02	3.173407e+02	1.170455e-02	2.255732e-04	3.114254e+01	4.776487e+02	2.882002e+02	3.755905e+00	1.461259e-01	2.543930e-05	0.000000e+00	0.000000e+00	0.000000e+00	
9.848077e-01	4.295906e-01	0.000000e+00	0.000000e+00	0.000000e+00	8.104728e-05	2.154421e-05	1.760141e-01	-3.865271e-03	1.380588e+02	5.318535e-03	1.025915e-04	7.175849e+00	2.419937e+02	2.881694e+02	5.483979e+00	-1.017690e-02	1.651023e-05	0.000000e+00	0.000000e+00	0.000000e+00	
8.709344e-01	4.722712e-01	0.000000e+00	0.000000e+00	0.000000e+00	8.317152e-05	2.210889e-05	1.796240e-01	4.586911e-04	1.437642e+02	5.454388e-03	1.052804e-04	8.914839e+00	2.929598e+02	2.881470e+02	4.955315e+00	1.164216e-03	1.816583e-05	0.000000e+00	0.000000e+00	0.000000e+00	
7.581998e-01	4.240841e-01	0.000000e+00	0.000000e+00	0.000000e+00	8.318959e-05	2.211369e-05	1.796540e-01	4.434786e-04	1.437564e+02	5.455677e-03	1.053033e-04	8.907353e+00	2.926502e+02	2.881476e+02	4.957686e+00	1.115391e-03	1.815622e-05	0.000000e+00	0.000000e+00	0.000000e+00	
6.465926e-01	3.763788e-01	0.000000e+00	0.000000e+00	0.000000e+00	8.322108e-05	2.212206e-05	1.797194e-01	3.797836e-04	1.437313e+02	5.457915e-03	1.053431e-04	8.880770e+00	2.916664e+02	2.881487e+02	4.965965e+00	9.420277e-04	1.812568e-05	0.000000e+00	0.000000e+00	0.000000e+00	
5.361014e-01	3.291506e-01	0.000000e+00	0.000000e+00	0.000000e+00	8.321537e-05	2.212054e-05	1.797134e-01	3.142283e-04	1.436718e+02	5.457631e-03	1.053359e-04	8.856079e+00	2.908754e+02	2.881493e+02	4.972883e+00	7.810035e-04	1.810109e-05	0.000000e+00	0.000000e+00	0.000000e+00	
4.267152e-01	2.823947e-01	0.000000e+00	0.000000e+00	0.000000e+00	8.312594e-05	2.209677e-05	1.795140e-01	2.757584e-04	1.435066e+02	5.451851e-03	1.052227e-04	8.846568e+00	2.908756e+02	2.881498e+02	4.972706e+00	7.189733e-04	1.810109e-05	0.000000e+00	0.000000e+00	0.000000e+00	
3.184228e-01	2.361063e-01	0.000000e+00	0.000000e+00	0.000000e+00	8.273195e-05	2.199204e-05	1.785333e-01	3.509972e-04	1.428501e+02	5.426259e-03	1.047240e-04	8.902634e+00	2.941131e+02	2.881514e+02	4.941670e+00	1.084616e-03	1.820155e-05	0.000000e+00	0.000000e+00	0.000000e+00	
2.112134e-01	1.902808e-01	0.000000e+00	0.000000e+00	0.000000e+00	8.178291e-05	2.173976e-05	1.760910e-01	5.356624e-04	1.411697e+02	5.364740e-03	1.035227e-04	9.052057e+00	3.025198e+02	2.881561e+02	4.861652e+00	2.059104e-03	1.848296e-05	0.000000e+00	0.000000e+00	0.000000e+00	
1.050760e-01	1.449136e-01	0.000000e+00	0.000000e+00	0.000000e+00	8.273873e-05	2.199384e-05	1.785977e-01	3.861890e-05	1.427226e+02	5.427526e-03	1.047326e-04	8.813953e+00	2.911595e+02	2.881567e+02	4.968047e+00	5.062713e-04	1.810992e-05	0.000000e+00	0.000000e+00	0.000000e+00	
-1.467610e-02	1.000000e-01	0.000000e+00	0.000000e+00	0.000000e+00	8.293147e-05	2.204507e-05	1.792255e-01	4.091697e-05	1.431987e+02	5.439139e-03	1.049765e-04	8.747394e+00	2.882892e+02	2.881501e+02	4.998624e+00	7.219172e-05	1.802044e-05	0.000000e+00	0.000000e+00	0.000000e+00	
-3.126009e-02	1.000000e-01	0.000000e+00	0.000000e+00	0.000000e+00	8.287239e-05	2.202937e-05	1.791043e-01	-2.780478e-06	1.430971e+02	5.435243e-03	1.049018e-04	8.736915e+00	2.881492e+02	2.881500e+02	5.000018e+00	3.856258e-06	1.801606e-05	0.000000e+00	0.000000e+00	0.000000e+00	
-5.000000e-02	7.304491e-02	0.000000e+00	0.000000e+00	0.000000e+00	8.280638e-05	2.201182e-05	1.789678e-01	-2.149576e-05	1.429829e+02	5.430874e-03	1.048182e-04	8.725650e+00	2.880070e+02	2.881497e+02	5.001426e+00	-6.961580e-05	1.801162e-05	0.000000e+00	0.000000e+00	0.000000e+00	
-5.000000e-02	4.743758e-02	0.000000e+00	0.000000e+00	0.000000e+00	8.260540e-05	2.195840e-05	1.786135e-01	-2.549341e-04	1.426698e+02	5.416193e-03	1.045638e-04	8.663253e+00	2.866432e+02	2.881402e+02	5.015562e+00	-4.765430e-04	1.796892e-05	0.000000e+00	0.000000e+00	0.000000e+00	
-5.000000e-02	2.311062e-02	0.000000e+00	0.000000e+00	0.000000e+00	8.261192e-05	2.196013e-05	1.789076e-01	-1.355838e-04	1.430331e+02	5.413597e-03	1.045720e-04	8.613362e+00	2.849700e+02	2.881209e+02	5.038146e+00	-8.019179e-04	1.791640e-05	0.000000e+00	0.000000e+00	0.000000e+00	
0.000000e+00	7.304491e-02	0.000000e+00	0.000000e+00	0.000000e+00	8.302909e-05	2.207102e-05	1.793535e-01	2.445687e-04	1.433352e+02	5.446655e-03	1.051001e-04	8.801375e+00	2.897273e+02	2.881572e+02	4.983903e+00	4.242412e-04	1.806533e-05	0.000000e+00	0.000000e+00	0.000000e+00	
0.000000e+00	4.743758e-02	0.000000e+00	0.000000e+00	0.000000e+00	8.225578e-05	2.186546e-05	1.761078e-01	1.769708e-03	1.417217e+02	5.443525e-03	1.041212e-04	9.672626e+00	3.214009e+02	2.884607e+02	4.690236e+00	6.106250e-03	1.923143e-05	0.000000e+00	0.000000e+00	0.000000e+00	
0.000000e+00	2.311062e-02	0.000000e+00	0.000000e+00	0.000000e+00	9.448731e-05	2.511688e-05	1.787807e-01	2.316122e-02	1.595829e+02	7.153916e-03	1.196042e-04	2.391936e+01	6.919031e+02	2.931858e+02	2.848545e+00	9.901873e-02	3.315731e-05	0.000000e+00	0.000000e+00	0.000000e+00	
1.054319e-01	4.802706e-02	0.000000e+00	0.000000e+00	0.000000e+00	1.405702e-04	3.736675e-05	2.616163e-01	7.635002e-02	2.253203e+02	8.648643e-03	1.779369e-04	2.811553e+01	5.466663e+02	2.859589e+02	3.256445e+00	1.263847e-01	2.819080e-05	0.000000e+00	0.000000e+00	0.000000e+00	
1.053174e-01	7.883747e-02	0.000000e+00	0.000000e+00	0.000000e+00	1.153520e-04	3.066320e-05	2.400157e-01	2.138641e-02	1.950484e+02	7.575442e-03	1.460152e-04	1.610409e+01	3.815752e+02	2.881956e+02	4.199773e+00	4.805013e-02	2.160681e-05	0.000000e+00	0.000000e+00	0.000000e+00	
1.051987e-01	1.111092e-01	0.000000e+00	0.000000e+00	0.000000e+00	8.272613e-05	2.199049e-05	1.794050e-01	-5.766664e-04	1.431505e+02	5.422213e-03	1.047166e-04	8.421295e+00	2.782309e+02	2.881281e+02	5.105938e+00	-2.054512e-03	1.770328e-05	0.000000e+00	0.000000e+00	0.000000e+00	
2.118402e-01	7.317947e-02	0.000000e+00	0.000000e+00	0.000000e+00	1.640707e-04	4.361374e-05	2.927539e-01	8.385367e-02	2.600892e+02	1.008428e-02	2.076845e-04	3.978911e+01	6.628301e+02	2.859243e+02	2.831241e+00	2.025159e-01	3.227249e-05	0.000000e+00	0.000000e+00	0.000000e+00	
2.116384e-01	1.105438e-01	0.000000e+00	0.000000e+00	0.000000e+00	1.597712e-04	4.247082e-05	3.215731e-01	6.013349e-02	2.696546e+02	1.047406e-02	2.022420e-04	2.642451e+01	4.520408e+02	2.881347e+02	3.782161e+00	1.153565e-01	2.440747e-05	0.000000e+00	0.000000e+00	0.000000e+00	
2.114295e-01	1.495525e-01	0.000000e+00	0.000000e+00	0.000000e+00	8.298210e-05	2.205853e-05	1.809479e-01	-2.318804e-03	1.436185e+02	5.440811e-03	1.050406e-04	7.768992e+00	2.558877e+02	2.881397e+02	5.353826e+00	-6.308617e-03	1.697758e-05	0.000000e+00	0.000000e+00	0.000000e+00	
3.192339e-01	9.857011e-02	0.000000e+00	0.000000e+00	0.000000e+00	1.638431e-04	4.355324e-05	2.892606e-01	8.264656e-02	2.709419e+02	1.087046e-02	2.073964e-04	4.612549e+01	7.694526e+02	2.885488e+02	2.599528e+00	2.438397e-01	3.549639e-05	0.000000e+00	0.000000e+00	0.000000e+00	
3.189728e-01	1.425597e-01	0.000000e+00	0.000000e+00	0.000000e+00	1.879611e-04	4.996434e-05	3.750799e-01	8.911419e-02	3.237399e+02	1.232805e-02	2.379254e-04	3.326764e+01	4.837523e+02	2.881514e+02	3.662288e+00	1.599850e-01	2.568674e-05	0.000000e+00	0.000000e+00	0.000000e+00	
3.187025e-01	1.883786e-01	0.000000e+00	0.000000e+00	0.000000e+00	8.489070e-05	2.256588e-05	1.844880e-01	-1.570489e-03	1.461486e+02	5.567290e-03	1.074566e-04	8.071961e+00	2.598891e+02	2.881480e+02	5.294367e+00	-4.332756e-03	1.710981e-05	0.000000e+00	0.000000e+00	0.000000e+00	
4.276221e-01	1.242012e-01	0.000000e+00	0.000000e+00	0.000000e+00	1.586360e-04	4.216907e-05	2.821247e-01	8.177942e-02	2.742792e+02	1.169382e-02	2.008051e-04	4.800297e+01	8.270569e+02	2.922358e+02	2.528572e+00	2.560840e-01	3.722042e-05	0.000000e+00	0.000000e+00	0.000000e+00	
4.273302e-01	1.748880e-01	0.000000e+00	0.000000e+00	0.000000e+00	1.973739e-04	5.246648e-05	3.956359e-01	9.987694e-02	3.473239e+02	1.297063e-02	2.498404e-04	3.578640e+01	4.955614e+02	2.882185e+02	3.647178e+00	1.764116e-01	2.616731e-05	0.000000e+00	0.000000e+00	0.000000e+00	
4.270280e-01	2.275914e-01	0.000000e+00	0.000000e+00	0.000000e+00	8.594296e-05	2.284560e-05	1.861843e-01	-9.463706e-04	1.472197e+02	5.635861e-03	1.087886e-04	8.283744e+00	2.634423e+02	2.881453e+02	5.241791e+00	-2.951578e-03	1.722637e-05	0.000000e+00	0.000000e+00	0.000000e+00	
5.370142e-01	1.500751e-01	0.000000e+00	0.000000e+00	0.000000e+00	1.569003e-04	4.170767e-05	2.810905e-01	8.370286e-02	2.784453e+02	1.290126e-02	1.986079e-04	4.871913e+01	8.486818e+02	2.961524e+02	2.519897e+00	2.607545e-01	3.786585e-05	0.000000e+00	0.000000e+00	0.000000e+00	
5.367203e-01	2.075319e-01	0.000000e+00	0.000000e+00	0.000000e+00	1.969676e-04	5.235848e-05	3.972228e-01	9.965158e-02	3.506533e+02	1.296453e-02	2.493261e-04	3.580792e+01	4.968822e+02	2.882735e+02	3.663114e+00	1.765519e-01	2.622122e-05	0.000000e+00	0.000000e+00	0.000000e+00	
5.364162e-01	2.671946e-01	0.000000e+00	0.000000e+00	0.000000e+00	8.512370e-05	2.262782e-05	1.843460e-01	-1.532659e-03	1.453519e+02	5.581558e-03	1.077515e-04	8.059736e+00	2.587852e+02	2.881417e+02	5.287041e+00	-4.412483e-03	1.707343e-05	0.000000e+00	0.000000e+00	0.000000e+00	
6.474193e-01	1.761941e-01	0.000000e+00	0.000000e+00	0.000000e+00	1.575284e-04	4.187465e-05	2.831563e-01	8.687033e-02	2.828010e+02	1.440325e-02	1.994031e-04	4.919115e+01	8.534873e+02	3.000483e+02	2.527468e+00	2.638329e-01	3.800918e-05	0.000000e+00	0.000000e+00	0.000000e+00	
6.471531e-01	2.404945e-01	0.000000e+00	0.000000e+00	0.000000e+00	1.939078e-04	5.154510e-05	3.923475e-01	9.603385e-02	3.460697e+02	1.277464e-02	2.454529e-04	3.509759e+01	4.947106e+02	2.883046e+02	3.678062e+00	1.719194e-01	2.613261e-05	0.000000e+00	0.000000e+00	0.000000e+00	
6.468777e-01	3.071922e-01	0.000000e+00	0.000000e+00	0.000000e+00	8.365348e-05	2.223700e-05	1.813345e-01	-2.526527e-03	1.425894e+02	5.485156e-03	1.058905e-04	7.693822e+00	2.513780e+02	2.881417e+02	5.369813e+00	-6.798850e-03	1.682731e-05	0.000000e+00	0.000000e+00	0.000000e+00	
7.588469e-01	2.025605e-01	0.000000e+00	0.000000e+00	0.000000e+00	1.586601e-04	4.217547e-05	2.857760e-01	9.045455e-02	2.866065e+02	1.594139e-02	2.008356e-04	4.939600e+01	8.509288e+02	3.035882e+02	2.543483e+00	2.651689e-01	3.793287e-05	0.000000e+00	0.000000e+00	0.000000e+00	
7.586386e-01	2.737788e-01	0.000000e+00	0.000000e+00	0.000000e+00	1.899814e-04	5.050138e-05	3.851978e-01	9.122097e-02	3.385424e+02	1.251227e-02	2.404827e-04	3.411231e+01	4.907600e+02	2.882944e+02	3.693781e+00	1.654937e-01	2.597162e-05	0.000000e+00	0.000000e+00	0.000000e+00	
7.584230e-01	3.475880e-01	0.000000e+00	0.000000e+00	0.000000e+00	8.235080e-05	2.189072e-05	1.787030e-01	-3.332246e-03	1.402771e+02	5.400892e-03	1.042415e-04	7.396101e+00	2.454732e+02	2.881491e+02	5.440284e+00	-8.740489e-03	1.662851e-05	0.000000e+00	0.000000e+00	0.000000e+00	
8.713065e-01	2.291766e-01	0.000000e+00	0.000000e+00	0.000000e+00	1.596191e-04	4.243040e-05	2.864607e-01	9.345739e-02	2.889937e+02	1.807616e-02	2.020495e-04	5.009964e+01	8.578647e+02	3.081885e+02	2.531153e+00	2.697577e-01	3.813973e-05	0.000000e+00	0.000000e+00	0.000000e+00	
8.711867e-01	3.073880e-01	0.000000e+00	0.000000e+00	0.000000e+00	1.891833e-04	5.028923e-05	3.833017e-01	8.982988e-02	3.364471e+02	1.248306e-02	2.394725e-04	3.402984e+01	4.916389e+02	2.883591e+02	3.685781e+00	1.649559e-01	2.600741e-05	0.000000e+00	0.000000e+00	0.000000e+00	
8.710627e-01	3.883862e-01	0.000000e+00	0.000000e+00	0.000000e+00	8.179125e-05	2.174198e-05	1.775860e-01	-3.615027e-03	1.393080e+02	5.364211e-03	1.035332e-04	7.268643e+00	2.428933e+02	2.881492e+02	5.472280e+00	-9.571725e-03	1.654089e-05	0.000000e+00	0.000000e+00	0.000000e+00	
-1.460349e-02	7.304491e-02	0.000000e+00	0.000000e+00	0.000000e+00	8.281449e-05	2.201398e-05	1.789970e-01	4.737413e-05	1.429984e+02	5.431206e-03	1.048285e-04	8.719120e+00	2.877633e+02	2.881485e+02	5.003869e+00	-1.122013e-04	1.800399e-05	0.000000e+00	0.000000e+00	0.000000e+00	
-1.453450e-02	4.743758e-02	0.000000e+00	0.000000e+00	0.000000e+00	8.172447e-05	2.172423e-05	1.770125e-01	-1.265799e-03	1.411307e+02	5.350096e-03	1.034487e-04	8.353076e+00	2.793595e+02	2.880864e+02	5.089385e+00	-2.499417e-03	1.773915e-05	0.000000e+00	0.000000e+00	0.000000e+00	
-1.446897e-02	2.311062e-02	0.000000e+00	0.000000e+00	0.000000e+00	8.093705e-05	2.151491e-05	1.800031e-01	-6.279197e-03	1.398767e+02	5.109651e-03	1.024520e-04	4.983783e+00	1.682987e+02	2.868386e+02	6.736595e+00	-2.447282e-02	1.376866e-05	0.000000e+00	0.000000e+00	0.000000e+00	
-3.118086e-02	7.304491e-02	0.000000e+00	0.000000e+00	0.000000e+00	8.285855e-05	2.202569e-05	1.790689e-01	2.593267e-06	1.430678e+02	5.434389e-03	1.048842e-04	8.737012e+00	2.882005e+02	2.881503e+02	4.999421e+00	4.487943e-06	1.801767e-05	0.000000e+00	0.000000e+00	0.000000e+00	
-3.110559e-02	4.743758e-02	0.000000e+00	0.000000e+00	0.000000e+00	8.288736e-05	2.203335e-05	1.790764e-01	6.792843e-05	1.431178e+02	5.438113e-03	1.049207e-04	8.777584e+00	2.894382e+02	2.881620e+02	4.987194e+00	2.690818e-04	1.805631e-05	0.000000e+00	0.000000e+00	0.000000e+00	
-3.103409e-02	2.311062e-02	0.000000e+00	0.000000e+00	0.000000e+00	8.298304e-05	2.205878e-05	1.794688e-01	-1.765744e-04	1.432056e+02	5.437521e-03	1.050418e-04	8.629842e+00	2.842383e+02	2.881184e+02	5.037821e+00	-6.944440e-04	1.789338e-05	0.000000e+00	0.000000e+00	0.000000e+00	
1	9	36	35
35	36	37	34
34	37	38	33
33	38	27	5
9	10	39	36
36	39	40	37
37	40	41	38
38	41	26	27
10	11	42	39
39	42	43	40
40	43	44	41
41	44	25	26
11	12	45	42
42	45	46	43
43	46	47	44
44	47	24	25
12	13	48	45
45	48	49	46
46	49	50	47
47	50	23	24
13	14	51	48
48	51	52	49
49	52	53	50
50	53	22	23
14	15	54	51
51	54	55	52
52	55	56	53
53	56	21	22
15	16	57	54
54	57	58	55
55	58	59	56
56	59	20	21
16	3	17	57
57	17	18	58
58	18	19	59
59	19	4	20
5	28	60	33
33	60	61	34
34	61	62	35
35	62	8	1
28	29	63	60
60	63	64	61
61	64	65	62
62	65	7	8
29	6	30	63
63	30	31	64
64	31	32	65
65	32	2	7
