TITLE = "Visualization of the volumetric solution"
VARIABLES = "x","y","Density[0]","Density[1]","Momentum_x","Momentum_y","Energy","Electronic Energy","Total Density","Pressure","Temperature","Tve","Mach","C<sub>p</sub>","<greek>m</greek>","C<sub>f</sub>_x","C<sub>f</sub>_y","h"
ZONE NODES= 65, ELEMENTS= 48, DATAPACKING=POINT, ZONETYPE=FEQUADRILATERAL
0.000000e+00	0.000000e+00	1.222160e+00	1.222282e-04	2.114831e+03	-4.487576e-16	1.719668e+06	9.015367e+00	1.222282e+00	1.058326e+05	2.916999e+02	2.881500e+02	4.969482e+00	2.542043e-03	6.268251e-310	0.000000e+00	0.000000e+00	0.000000e+00	
-5.000000e-02	0.000000e+00	1.184521e+00	1.184640e-04	2.049700e+03	0.000000e+00	1.663587e+06	8.737721e+00	1.184640e+00	1.013250e+05	2.881500e+02	2.881500e+02	5.000000e+00	-3.282583e-17	6.268251e-310	0.000000e+00	0.000000e+00	0.000000e+00	
9.848077e-01	1.736484e-01	1.214703e+00	1.214824e-04	2.101927e+03	-1.339822e-15	1.708557e+06	8.960357e+00	1.214824e+00	1.049395e+05	2.910141e+02	2.881500e+02	4.975335e+00	2.038391e-03	6.268251e-310	0.000000e+00	0.000000e+00	0.000000e+00	
9.848077e-01	5.209451e-01	1.184521e+00	1.184640e-04	2.049700e+03	0.000000e+00	1.663587e+06	8.737721e+00	1.184640e+00	1.013250e+05	2.881500e+02	2.881500e+02	5.000000e+00	-3.282583e-17	6.268251e-310	0.000000e+00	0.000000e+00	0.000000e+00	
0.000000e+00	1.000000e-01	1.184521e+00	1.184640e-04	2.049700e+03	-1.684818e-15	1.663587e+06	8.737721e+00	1.184640e+00	1.013250e+05	2.881500e+02	2.881500e+02	5.000000e+00	-3.282583e-17	6.268251e-310	0.000000e+00	0.000000e+00	0.000000e+00	
-5.000000e-02	1.000000e-01	1.184521e+00	1.184640e-04	2.049700e+03	-7.186529e-16	1.663587e+06	8.737721e+00	1.184640e+00	1.013250e+05	2.881500e+02	2.881500e+02	5.000000e+00	-3.282583e-17	6.268251e-310	0.000000e+00	0.000000e+00	0.000000e+00	
-3.096616e-02	0.000000e+00	1.184521e+00	1.184640e-04	2.049700e+03	0.000000e+00	1.663587e+06	8.737721e+00	1.184640e+00	1.013250e+05	2.881500e+02	2.881500e+02	5.000000e+00	-3.282583e-17	6.268251e-310	0.000000e+00	0.000000e+00	0.000000e+00	
-1.440672e-02	0.000000e+00	1.184521e+00	1.184640e-04	2.049700e+03	0.000000e+00	1.663587e+06	8.737721e+00	1.184640e+00	1.013250e+05	2.881500e+02	2.881500e+02	5.000000e+00	-3.282583e-17	6.268251e-310	0.000000e+00	0.000000e+00	0.000000e+00	
1.055427e-01	1.861004e-02	1.229658e+00	1.229781e-04	2.127806e+03	-2.142985e-15	1.730840e+06	9.070678e+00	1.229781e+00	1.067306e+05	2.923812e+02	2.881500e+02	4.963690e+00	3.048459e-03	6.268251e-310	0.000000e+00	0.000000e+00	0.000000e+00	
2.120352e-01	3.738757e-02	1.228568e+00	1.228691e-04	2.125919e+03	0.000000e+00	1.729216e+06	9.062637e+00	1.228691e+00	1.066001e+05	2.922827e+02	2.881500e+02	4.964526e+00	2.974836e-03	6.268251e-310	0.000000e+00	0.000000e+00	0.000000e+00	
3.194862e-01	5.633410e-02	1.227537e+00	1.227660e-04	2.124134e+03	0.000000e+00	1.727679e+06	9.055027e+00	1.227660e+00	1.064765e+05	2.921893e+02	2.881500e+02	4.965319e+00	2.905164e-03	6.268251e-310	0.000000e+00	0.000000e+00	0.000000e+00	
4.279042e-01	7.545115e-02	1.226559e+00	1.226682e-04	2.122443e+03	0.000000e+00	1.726222e+06	9.047815e+00	1.226682e+00	1.063594e+05	2.921006e+02	2.881500e+02	4.966073e+00	2.839136e-03	6.268251e-310	0.000000e+00	0.000000e+00	0.000000e+00	
5.372980e-01	9.474025e-02	1.225631e+00	1.225754e-04	2.120837e+03	-1.883074e-15	1.724840e+06	9.040971e+00	1.225754e+00	1.062483e+05	2.920163e+02	2.881500e+02	4.966789e+00	2.776472e-03	6.268251e-310	0.000000e+00	0.000000e+00	0.000000e+00	
6.476764e-01	1.142030e-01	1.224750e+00	1.224872e-04	2.119311e+03	0.000000e+00	1.723526e+06	9.034467e+00	1.224872e+00	1.061427e+05	2.919361e+02	2.881500e+02	4.967472e+00	2.716922e-03	6.268251e-310	0.000000e+00	0.000000e+00	0.000000e+00	
7.590482e-01	1.338408e-01	1.223911e+00	1.224033e-04	2.117860e+03	0.000000e+00	1.722276e+06	9.028278e+00	1.224033e+00	1.060422e+05	2.918597e+02	2.881500e+02	4.968122e+00	2.660259e-03	6.268251e-310	0.000000e+00	0.000000e+00	0.000000e+00	
8.714223e-01	1.536554e-01	1.223111e+00	1.223234e-04	2.116476e+03	0.000000e+00	1.721085e+06	9.022382e+00	1.223234e+00	1.059465e+05	2.917868e+02	2.881500e+02	4.968742e+00	2.606278e-03	6.268251e-310	0.000000e+00	0.000000e+00	0.000000e+00	
9.848077e-01	2.560449e-01	1.184521e+00	1.184640e-04	2.049700e+03	9.356855e-16	1.663587e+06	8.737721e+00	1.184640e+00	1.013250e+05	2.881500e+02	2.881500e+02	5.000000e+00	-3.282583e-17	6.268251e-310	0.000000e+00	0.000000e+00	0.000000e+00	
9.848077e-01	3.413253e-01	1.184521e+00	1.184640e-04	2.049700e+03	9.106660e-16	1.663587e+06	8.737721e+00	1.184640e+00	1.013250e+05	2.881500e+02	2.881500e+02	5.000000e+00	-3.282583e-17	6.268251e-310	0.000000e+00	0.000000e+00	0.000000e+00	
9.848077e-01	4.295906e-01	1.184521e+00	1.184640e-04	2.049700e+03	0.000000e+00	1.663587e+06	8.737721e+00	1.184640e+00	1.013250e+05	2.881500e+02	2.881500e+02	5.000000e+00	-3.282583e-17	6.268251e-310	0.000000e+00	0.000000e+00	0.000000e+00	
8.709344e-01	4.722712e-01	1.184521e+00	1.184640e-04	2.049700e+03	0.000000e+00	1.663587e+06	8.737721e+00	1.184640e+00	1.013250e+05	2.881500e+02	2.881500e+02	5.000000e+00	-3.282583e-17	6.268251e-310	0.000000e+00	0.000000e+00	0.000000e+00	
7.581998e-01	4.240841e-01	1.184521e+00	1.184640e-04	2.049700e+03	0.000000e+00	1.663587e+06	8.737721e+00	1.184640e+00	1.013250e+05	2.881500e+02	2.881500e+02	5.000000e+00	-3.282583e-17	6.268251e-310	0.000000e+00	0.000000e+00	0.000000e+00	
6.465926e-01	3.763788e-01	1.184521e+00	1.184640e-04	2.049700e+03	0.000000e+00	1.663587e+06	8.737721e+00	1.184640e+00	1.013250e+05	2.881500e+02	2.881500e+02	5.000000e+00	-3.282583e-17	6.268251e-310	0.000000e+00	0.000000e+00	0.000000e+00	
5.361014e-01	3.291506e-01	1.184521e+00	1.184640e-04	2.049700e+03	0.000000e+00	1.663587e+06	8.737721e+00	1.184640e+00	1.013250e+05	2.881500e+02	2.881500e+02	5.000000e+00	-3.282583e-17	6.268251e-310	0.000000e+00	0.000000e+00	0.000000e+00	
4.267152e-01	2.823947e-01	1.184521e+00	1.184640e-04	2.049700e+03	-1.811276e-15	1.663587e+06	8.737721e+00	1.184640e+00	1.013250e+05	2.881500e+02	2.881500e+02	5.000000e+00	-3.282583e-17	6.268251e-310	0.000000e+00	0.000000e+00	0.000000e+00	
3.184228e-01	2.361063e-01	1.184521e+00	1.184640e-04	2.049700e+03	-1.872003e-15	1.663587e+06	8.737721e+00	1.184640e+00	1.013250e+05	2.881500e+02	2.881500e+02	5.000000e+00	-3.282583e-17	6.268251e-310	0.000000e+00	0.000000e+00	0.000000e+00	
2.112134e-01	1.902808e-01	1.184521e+00	1.184640e-04	2.049700e+03	3.872471e-15	1.663587e+06	8.737721e+00	1.184640e+00	1.013250e+05	2.881500e+02	2.881500e+02	5.000000e+00	-3.282583e-17	6.268251e-310	0.000000e+00	0.000000e+00	0.000000e+00	
1.050760e-01	1.449136e-01	1.184521e+00	1.184640e-04	2.049700e+03	2.004280e-15	1.663587e+06	8.737721e+00	1.184640e+00	1.013250e+05	2.881500e+02	2.881500e+02	5.000000e+00	-3.282583e-17	6.268251e-310	0.000000e+00	0.000000e+00	0.000000e+00	
-1.467610e-02	1.000000e-01	1.184521e+00	1.184640e-04	2.049700e+03	1.129061e-15	1.663587e+06	8.737721e+00	1.184640e+00	1.013250e+05	2.881500e+02	2.881500e+02	5.000000e+00	-3.282583e-17	6.268251e-310	0.000000e+00	0.000000e+00	0.000000e+00	
-3.126009e-02	1.000000e-01	1.184521e+00	1.184640e-04	2.049700e+03	2.109442e-15	1.663587e+06	8.737721e+00	1.184640e+00	1.013250e+05	2.881500e+02	2.881500e+02	5.000000e+00	-3.282583e-17	6.268251e-310	0.000000e+00	0.000000e+00	0.000000e+00	
-5.000000e-02	7.304491e-02	1.184521e+00	1.184640e-04	2.049700e+03	4.602523e-16	1.663587e+06	8.737721e+00	1.184640e+00	1.013250e+05	2.881500e+02	2.881500e+02	5.000000e+00	-3.282583e-17	6.268251e-310	0.000000e+00	0.000000e+00	0.000000e+00	
-5.000000e-02	4.743758e-02	1.184521e+00	1.184640e-04	2.049700e+03	0.000000e+00	1.663587e+06	8.737721e+00	1.184640e+00	1.013250e+05	2.881500e+02	2.881500e+02	5.000000e+00	-3.282583e-17	6.268251e-310	0.000000e+00	0.000000e+00	0.000000e+00	
-5.000000e-02	2.311062e-02	1.184521e+00	1.184640e-04	2.049700e+03	-4.947558e-16	1.663587e+06	8.737721e+00	1.184640e+00	1.013250e+05	2.881500e+02	2.881500e+02	5.000000e+00	-3.282583e-17	6.268251e-310	0.000000e+00	0.000000e+00	0.000000e+00	
0.000000e+00	7.304491e-02	1.184521e+00	1.184640e-04	2.049700e+03	-7.521954e-16	1.663587e+06	8.737721e+00	1.184640e+00	1.013250e+05	2.881500e+02	2.881500e+02	5.000000e+00	-3.282583e-17	6.268251e-310	0.000000e+00	0.000000e+00	0.000000e+00	
0.000000e+00	4.743758e-02	1.184521e+00	1.184640e-04	2.049700e+03	-7.569396e-16	1.663587e+06	8.737721e+00	1.184640e+00	1.013250e+05	2.881500e+02	2.881500e+02	5.000000e+00	-3.282583e-17	6.268251e-310	0.000000e+00	0.000000e+00	0.000000e+00	
0.000000e+00	2.311062e-02	1.184521e+00	1.184640e-04	2.049700e+03	1.770673e-15	1.663587e+06	8.737721e+00	1.184640e+00	1.013250e+05	2.881500e+02	2.881500e+02	5.000000e+00	-3.282583e-17	6.268251e-310	0.000000e+00	0.000000e+00	0.000000e+00	
1.054319e-01	4.802706e-02	1.184521e+00	1.184640e-04	2.049700e+03	0.000000e+00	1.663587e+06	8.737721e+00	1.184640e+00	1.013250e+05	2.881500e+02	2.881500e+02	5.000000e+00	-3.282583e-17	6.268251e-310	0.000000e+00	0.000000e+00	0.000000e+00	
1.053174e-01	7.883747e-02	1.184521e+00	1.184640e-04	2.049700e+03	1.850351e-15	1.663587e+06	8.737721e+00	1.184640e+00	1.013250e+05	2.881500e+02	2.881500e+02	5.000000e+00	-3.282583e-17	6.268251e-310	0.000000e+00	0.000000e+00	0.000000e+00	
1.051987e-01	1.111092e-01	1.184521e+00	1.184640e-04	2.049700e+03	-1.805851e-15	1.663587e+06	8.737721e+00	1.184640e+00	1.013250e+05	2.881500e+02	2.881500e+02	5.000000e+00	-3.282583e-17	6.268251e-310	0.000000e+00	0.000000e+00	0.000000e+00	
2.118402e-01	7.317947e-02	1.184521e+00	1.184640e-04	2.049700e+03	0.000000e+00	1.663587e+06	8.737721e+00	1.184640e+00	1.013250e+05	2.881500e+02	2.881500e+02	5.000000e+00	-3.282583e-17	6.268251e-310	0.000000e+00	0.000000e+00	0.000000e+00	
2.116384e-01	1.105438e-01	1.184521e+00	1.184640e-04	2.049700e+03	0.000000e+00	1.663587e+06	8.737721e+00	1.184640e+00	1.013250e+05	2.881500e+02	2.881500e+02	5.000000e+00	-3.282583e-17	6.268251e-310	0.000000e+00	0.000000e+00	0.000000e+00	
2.114295e-01	1.495525e-01	1.184521e+00	1.184640e-04	2.049700e+03	-3.424933e-15	1.663587e+06	8.737721e+00	1.184640e+00	1.013250e+05	2.881500e+02	2.881500e+02	5.000000e+00	-3.282583e-17	6.268251e-310	0.000000e+00	0.000000e+00	0.000000e+00	
3.192339e-01	9.857011e-02	1.184521e+00	1.184640e-04	2.049700e+03	0.000000e+00	1.663587e+06	8.737721e+00	1.184640e+00	1.013250e+05	2.881500e+02	2.881500e+02	5.000000e+00	-3.282583e-17	6.268251e-310	0.000000e+00	0.000000e+00	0.000000e+00	
3.189728e-01	1.425597e-01	1.184521e+00	1.184640e-04	2.049700e+03	1.668461e-15	1.663587e+06	8.737721e+00	1.184640e+00	1.013250e+05	2.881500e+02	2.881500e+02	5.000000e+00	-3.282583e-17	6.268251e-310	0.000000e+00	0.000000e+00	0.000000e+00	
3.187025e-01	1.883786e-01	1.184521e+00	1.184640e-04	2.049700e+03	0.000000e+00	1.663587e+06	8.737721e+00	1.184640e+00	1.013250e+05	2.881500e+02	2.881500e+02	5.000000e+00	-3.282583e-17	6.268251e-310	0.000000e+00	0.000000e+00	0.000000e+00	
4.276221e-01	1.242012e-01	1.184521e+00	1.184640e-04	2.049700e+03	-1.625503e-15	1.663587e+06	8.737721e+00	1.184640e+00	1.013250e+05	2.881500e+02	2.881500e+02	5.000000e+00	-3.282583e-17	6.268251e-310	0.000000e+00	0.000000e+00	0.000000e+00	
4.273302e-01	1.748880e-01	1.184521e+00	1.184640e-04	2.049700e+03	0.000000e+00	1.663587e+06	8.737721e+00	1.184640e+00	1.013250e+05	2.881500e+02	2.881500e+02	5.000000e+00	-3.282583e-17	6.268251e-310	0.000000e+00	0.000000e+00	0.000000e+00	
4.270280e-01	2.275914e-01	1.184521e+00	1.184640e-04	2.049700e+03	1.549610e-15	1.663587e+06	8.737721e+00	1.184640e+00	1.013250e+05	2.881500e+02	2.881500e+02	5.000000e+00	-3.282583e-17	6.268251e-310	0.000000e+00	0.000000e+00	0.000000e+00	
5.370142e-01	1.500751e-01	1.184521e+00	1.184640e-04	2.049700e+03	0.000000e+00	1.663587e+06	8.737721e+00	1.184640e+00	1.013250e+05	2.881500e+02	2.881500e+02	5.000000e+00	-3.282583e-17	6.268251e-310	0.000000e+00	0.000000e+00	0.000000e+00	
5.367203e-01	2.075319e-01	1.184521e+00	1.184640e-04	2.049700e+03	1.516215e-15	1.663587e+06	8.737721e+00	1.184640e+00	1.013250e+05	2.881500e+02	2.881500e+02	5.000000e+00	-3.282583e-17	6.268251e-310	0.000000e+00	0.000000e+00	0.000000e+00	
5.364162e-01	2.671946e-01	1.184521e+00	1.184640e-04	2.049700e+03	0.000000e+00	1.663587e+06	8.737721e+00	1.184640e+00	1.013250e+05	2.881500e+02	2.881500e+02	5.000000e+00	-3.282583e-17	6.268251e-310	0.000000e+00	0.000000e+00	0.000000e+00	
6.474193e-01	1.761941e-01	1.184521e+00	1.184640e-04	2.049700e+03	-1.483192e-15	1.663587e+06	8.737721e+00	1.184640e+00	1.013250e+05	2.881500e+02	2.881500e+02	5.000000e+00	-3.282583e-17	6.268251e-310	0.000000e+00	0.000000e+00	0.000000e+00	
6.471531e-01	2.404945e-01	1.184521e+00	1.184640e-04	2.049700e+03	1.449042e-15	1.663587e+06	8.737721e+00	1.184640e+00	1.013250e+05	2.881500e+02	2.881500e+02	5.000000e+00	-3.282583e-17	6.268251e-310	0.000000e+00	0.000000e+00	0.000000e+00	
6.468777e-01	3.071922e-01	1.184521e+00	1.184640e-04	2.049700e+03	-1.412394e-15	1.663587e+06	8.737721e+00	1.184640e+00	1.013250e+05	2.881500e+02	2.881500e+02	5.000000e+00	-3.282583e-17	6.268251e-310	0.000000e+00	0.000000e+00	0.000000e+00	
7.588469e-01	2.025605e-01	1.184521e+00	1.184640e-04	2.049700e+03	0.000000e+00	1.663587e+06	8.737721e+00	1.184640e+00	1.013250e+05	2.881500e+02	2.881500e+02	5.000000e+00	-3.282583e-17	6.268251e-310	0.000000e+00	0.000000e+00	0.000000e+00	
7.586386e-01	2.737788e-01	1.184521e+00	1.184640e-04	2.049700e+03	0.000000e+00	1.663587e+06	8.737721e+00	1.184640e+00	1.013250e+05	2.881500e+02	2.881500e+02	5.000000e+00	-3.282583e-17	6.268251e-310	0.000000e+00	0.000000e+00	0.000000e+00	
7.584230e-01	3.475880e-01	1.184521e+00	1.184640e-04	2.049700e+03	0.000000e+00	1.663587e+06	8.737721e+00	1.184640e+00	1.013250e+05	2.881500e+02	2.881500e+02	5.000000e+00	-3.282583e-17	6.268251e-310	0.000000e+00	0.000000e+00	0.000000e+00	
8.713065e-01	2.291766e-01	1.184521e+00	1.184640e-04	2.049700e+03	0.000000e+00	1.663587e+06	8.737721e+00	1.184640e+00	1.013250e+05	2.881500e+02	2.881500e+02	5.000000e+00	-3.282583e-17	6.268251e-310	0.000000e+00	0.000000e+00	0.000000e+00	
8.711867e-01	3.073880e-01	1.184521e+00	1.184640e-04	2.049700e+03	0.000000e+00	1.663587e+06	8.737721e+00	1.184640e+00	1.013250e+05	2.881500e+02	2.881500e+02	5.000000e+00	-3.282583e-17	6.268251e-310	0.000000e+00	0.000000e+00	0.000000e+00	
8.710627e-01	3.883862e-01	1.184521e+00	1.184640e-04	2.049700e+03	0.000000e+00	1.663587e+06	8.737721e+00	1.184640e+00	1.013250e+05	2.881500e+02	2.881500e+02	5.000000e+00	-3.282583e-17	6.268251e-310	0.000000e+00	0.000000e+00	0.000000e+00	
-1.460349e-02	7.304491e-02	1.184521e+00	1.184640e-04	2.049700e+03	-6.742689e-16	1.663587e+06	8.737721e+00	1.184640e+00	1.013250e+05	2.881500e+02	2.881500e+02	5.000000e+00	-3.282583e-17	6.268251e-310	0.000000e+00	0.000000e+00	0.000000e+00	
-1.453450e-02	4.743758e-02	1.184521e+00	1.184640e-04	2.049700e+03	2.311982e-16	1.663587e+06	8.737721e+00	1.184640e+00	1.013250e+05	2.881500e+02	2.881500e+02	5.000000e+00	-3.282583e-17	6.268251e-310	0.000000e+00	0.000000e+00	0.000000e+00	
-1.446897e-02	2.311062e-02	1.184521e+00	1.184640e-04	2.049700e+03	1.700791e-16	1.663587e+06	8.737721e+00	1.184640e+00	1.013250e+05	2.881500e+02	2.881500e+02	5.000000e+00	-3.282583e-17	6.268251e-310	0.000000e+00	0.000000e+00	0.000000e+00	
-3.118086e-02	7.304491e-02	1.184521e+00	1.184640e-04	2.049700e+03	-8.199670e-16	1.663587e+06	8.737721e+00	1.184640e+00	1.013250e+05	2.881500e+02	2.881500e+02	5.000000e+00	-3.282583e-17	6.268251e-310	0.000000e+00	0.000000e+00	0.000000e+00	
-3.110559e-02	4.743758e-02	1.184521e+00	1.184640e-04	2.049700e+03	3.005475e-16	1.663587e+06	8.737721e+00	1.184640e+00	1.013250e+05	2.881500e+02	2.881500e+02	5.000000e+00	-3.282583e-17	6.268251e-310	0.000000e+00	0.000000e+00	0.000000e+00	
-3.103409e-02	2.311062e-02	1.184521e+00	1.184640e-04	2.049700e+03	-1.129143e-16	1.663587e+06	8.737721e+00	1.184640e+00	1.013250e+05	2.881500e+02	2.881500e+02	5.000000e+00	-3.282583e-17	6.268251e-310	0.000000e+00	0.000000e+00	0.000000e+00	
1	9	36	35
35	36	37	34
34	37	38	33
33	38	27	5
9	10	39	36
36	39	40	37
37	40	41	38
38	41	26	27
10	11	42	39
39	42	43	40
40	43	44	41
41	44	25	26
11	12	45	42
42	45	46	43
43	46	47	44
44	47	24	25
12	13	48	45
45	48	49	46
46	49	50	47
47	50	23	24
13	14	51	48
48	51	52	49
49	52	53	50
50	53	22	23
14	15	54	51
51	54	55	52
52	55	56	53
53	56	21	22
15	16	57	54
54	57	58	55
55	58	59	56
56	59	20	21
16	3	17	57
57	17	18	58
58	18	19	59
59	19	4	20
5	28	60	33
33	60	61	34
34	61	62	35
35	62	8	1
28	29	63	60
60	63	64	61
61	64	65	62
62	65	7	8
29	6	30	63
63	30	31	64
64	31	32	65
65	32	2	7
