TITLE = "SU2 Simulation"
VARIABLES = "Iteration","CL","CD","CSF","CMx","CMy","CMz","CFx","CFy","CFz","CL/CD","AoA","Custom_ObjFunc","Res_Flow[0]","Res_Flow[1]","Res_Flow[2]","Res_Flow[3]","Res_Flow[4]","Linear_Solver_Iterations","CFL_Number","Time(min)"
ZONE T= "Convergence history"
           1, 0.00000000e+00, 0.00000000e+00, 0.00000000e+00, 0.00000000e+00, 0.00000000e+00, 0.00000000e+00, 0.00000000e+00, 0.00000000e+00, 0.00000000e+00, 0.00000000e+00, 0.00000000e+00, 0.00000000e+00, -4.44630253e-01, 2.76801512e+00, 2.25486362e+00, 5.81270709e+00, 0.00000000e+00, 0.0000000000, 1.0000000000, 0.0000404517
           2, 0.00000000e+00, 0.00000000e+00, 0.00000000e+00, 0.00000000e+00, 0.00000000e+00, 0.00000000e+00, 0.00000000e+00, 0.00000000e+00, 0.00000000e+00, 0.00000000e+00, 0.00000000e+00, 0.00000000e+00, -4.51385452e-01, 2.75883206e+00, 2.26893901e+00, 5.80499254e+00, 0.00000000e+00, 0.0000000000, 1.0000000000, 0.0000808835
           3, 0.00000000e+00, 0.00000000e+00, 0.00000000e+00, 0.00000000e+00, 0.00000000e+00, 0.00000000e+00, 0.00000000e+00, 0.00000000e+00, 0.00000000e+00, 0.00000000e+00, 0.00000000e+00, 0.00000000e+00, -4.74991348e-01, 2.73241840e+00, 2.28564475e+00, 5.78040435e+00, 0.00000000e+00, 0.0000000000, 1.0000000000, 0.0001168847
           4, 0.00000000e+00, 0.00000000e+00, 0.00000000e+00, 0.00000000e+00, 0.00000000e+00, 0.00000000e+00, 0.00000000e+00, 0.00000000e+00, 0.00000000e+00, 0.00000000e+00, 0.00000000e+00, 0.00000000e+00, -5.11166847e-01, 2.69282746e+00, 2.29949894e+00, 5.74332022e+00, 0.00000000e+00, 0.0000000000, 1.0000000000, 0.0001523495
           5, 0.00000000e+00, 0.00000000e+00, 0.00000000e+00, 0.00000000e+00, 0.00000000e+00, 0.00000000e+00, 0.00000000e+00, 0.00000000e+00, 0.00000000e+00, 0.00000000e+00, 0.00000000e+00, 0.00000000e+00, -5.53173384e-01, 2.64678621e+00, 2.30869603e+00, 5.70045245e+00, 0.00000000e+00, 0.0000000000, 1.0000000000, 0.0001879334
           6, 0.00000000e+00, 0.00000000e+00, 0.00000000e+00, 0.00000000e+00, 0.00000000e+00, 0.00000000e+00, 0.00000000e+00, 0.00000000e+00, 0.00000000e+00, 0.00000000e+00, 0.00000000e+00, 0.00000000e+00, -5.90176333e-01, 2.60583043e+00, 2.31298726e+00, 5.66245854e+00, 0.00000000e+00, 0.0000000000, 1.0000000000, 0.0002234340
           7, 0.00000000e+00, 0.00000000e+00, 0.00000000e+00, 0.00000000e+00, 0.00000000e+00, 0.00000000e+00, 0.00000000e+00, 0.00000000e+00, 0.00000000e+00, 0.00000000e+00, 0.00000000e+00, 0.00000000e+00, -6.08479812e-01, 2.58536140e+00, 2.31280787e+00, 5.64280754e+00, 0.00000000e+00, 0.0000000000, 1.0000000000, 0.0002587994
           8, 0.00000000e+00, 0.00000000e+00, 0.00000000e+00, 0.00000000e+00, 0.00000000e+00, 0.00000000e+00, 0.00000000e+00, 0.00000000e+00, 0.00000000e+00, 0.00000000e+00, 0.00000000e+00, 0.00000000e+00, -5.98147744e-01, 2.59672479e+00, 2.30915497e+00, 5.65167222e+00, 0.00000000e+00, 0.0000000000, 1.0000000000, 0.0002939185
           9, 0.00000000e+00, 0.00000000e+00, 0.00000000e+00, 0.00000000e+00, 0.00000000e+00, 0.00000000e+00, 0.00000000e+00, 0.00000000e+00, 0.00000000e+00, 0.00000000e+00, 0.00000000e+00, 0.00000000e+00, -5.60415751e-01, 2.63782020e+00, 2.30389999e+00, 5.68864219e+00, 0.00000000e+00, 0.0000000000, 1.0000000000, 0.0003289660
          10, 0.00000000e+00, 0.00000000e+00, 0.00000000e+00, 0.00000000e+00, 0.00000000e+00, 0.00000000e+00, 0.00000000e+00, 0.00000000e+00, 0.00000000e+00, 0.00000000e+00, 0.00000000e+00, 0.00000000e+00, -5.13654503e-01, 2.68769056e+00, 2.29838606e+00, 5.73512075e+00, 0.00000000e+00, 0.0000000000, 1.0000000000, 0.0003645500
          11, 0.00000000e+00, 0.00000000e+00, 0.00000000e+00, 0.00000000e+00, 0.00000000e+00, 0.00000000e+00, 0.00000000e+00, 0.00000000e+00, 0.00000000e+00, 0.00000000e+00, 0.00000000e+00, 0.00000000e+00, -4.74922496e-01, 2.72812397e+00, 2.29409853e+00, 5.77338750e+00, 0.00000000e+00, 0.0000000000, 1.0000000000, 0.0003998001
          12, 0.00000000e+00, 0.00000000e+00, 0.00000000e+00, 0.00000000e+00, 0.00000000e+00, 0.00000000e+00, 0.00000000e+00, 0.00000000e+00, 0.00000000e+00, 0.00000000e+00, 0.00000000e+00, 0.00000000e+00, -4.49511306e-01, 2.75399394e+00, 2.29240225e+00, 5.79800529e+00, 0.00000000e+00, 0.0000000000, 1.0000000000, 0.0004349351
          13, 0.00000000e+00, 0.00000000e+00, 0.00000000e+00, 0.00000000e+00, 0.00000000e+00, 0.00000000e+00, 0.00000000e+00, 0.00000000e+00, 0.00000000e+00, 0.00000000e+00, 0.00000000e+00, 0.00000000e+00, -4.36929211e-01, 2.76615440e+00, 2.29339212e+00, 5.80948902e+00, 0.00000000e+00, 0.0000000000, 1.0000000000, 0.0004703522
          14, 0.00000000e+00, 0.00000000e+00, 0.00000000e+00, 0.00000000e+00, 0.00000000e+00, 0.00000000e+00, 0.00000000e+00, 0.00000000e+00, 0.00000000e+00, 0.00000000e+00, 0.00000000e+00, 0.00000000e+00, -4.34665307e-01, 2.76741232e+00, 2.29612434e+00, 5.81039077e+00, 0.00000000e+00, 0.0000000000, 1.0000000000, 0.0005056659
          15, 0.00000000e+00, 0.00000000e+00, 0.00000000e+00, 0.00000000e+00, 0.00000000e+00, 0.00000000e+00, 0.00000000e+00, 0.00000000e+00, 0.00000000e+00, 0.00000000e+00, 0.00000000e+00, 0.00000000e+00, -4.39720417e-01, 2.76101158e+00, 2.29913197e+00, 5.80372749e+00, 0.00000000e+00, 0.0000000000, 1.0000000000, 0.0005407492
          16, 0.00000000e+00, 0.00000000e+00, 0.00000000e+00, 0.00000000e+00, 0.00000000e+00, 0.00000000e+00, 0.00000000e+00, 0.00000000e+00, 0.00000000e+00, 0.00000000e+00, 0.00000000e+00, 0.00000000e+00, -4.48971899e-01, 2.75031566e+00, 2.30099018e+00, 5.79262982e+00, 0.00000000e+00, 0.0000000000, 1.0000000000, 0.0005759358
          17, 0.00000000e+00, 0.00000000e+00, 0.00000000e+00, 0.00000000e+00, 0.00000000e+00, 0.00000000e+00, 0.00000000e+00, 0.00000000e+00, 0.00000000e+00, 0.00000000e+00, 0.00000000e+00, 0.00000000e+00, -4.59198806e-01, 2.73880887e+00, 2.30068539e+00, 5.78036093e+00, 0.00000000e+00, 0.0000000000, 1.0000000000, 0.0006115357
          18, 0.00000000e+00, 0.00000000e+00, 0.00000000e+00, 0.00000000e+00, 0.00000000e+00, 0.00000000e+00, 0.00000000e+00, 0.00000000e+00, 0.00000000e+00, 0.00000000e+00, 0.00000000e+00, 0.00000000e+00, -4.67222059e-01, 2.72993021e+00, 2.29782440e+00, 5.77023515e+00, 0.00000000e+00, 0.0000000000, 1.0000000000, 0.0006467501
          19, 0.00000000e+00, 0.00000000e+00, 0.00000000e+00, 0.00000000e+00, 0.00000000e+00, 0.00000000e+00, 0.00000000e+00, 0.00000000e+00, 0.00000000e+00, 0.00000000e+00, 0.00000000e+00, 0.00000000e+00, -4.70424073e-01, 2.72646762e+00, 2.29268468e+00, 5.76511211e+00, 0.00000000e+00, 0.0000000000, 1.0000000000, 0.0006817500
          20, 0.00000000e+00, 0.00000000e+00, 0.00000000e+00, 0.00000000e+00, 0.00000000e+00, 0.00000000e+00, 0.00000000e+00, 0.00000000e+00, 0.00000000e+00, 0.00000000e+00, 0.00000000e+00, 0.00000000e+00, -4.67593446e-01, 2.72960581e+00, 2.28618967e+00, 5.76646318e+00, 0.00000000e+00, 0.0000000000, 1.0000000000, 0.0007168015
          21, 0.00000000e+00, 0.00000000e+00, 0.00000000e+00, 0.00000000e+00, 0.00000000e+00, 0.00000000e+00, 0.00000000e+00, 0.00000000e+00, 0.00000000e+00, 0.00000000e+00, 0.00000000e+00, 0.00000000e+00, -4.58605632e-01, 2.73930997e+00, 2.28001441e+00, 5.77469360e+00, 0.00000000e+00, 0.0000000000, 1.0000000000, 0.0007521669
          22, 0.00000000e+00, 0.00000000e+00, 0.00000000e+00, 0.00000000e+00, 0.00000000e+00, 0.00000000e+00, 0.00000000e+00, 0.00000000e+00, 0.00000000e+00, 0.00000000e+00, 0.00000000e+00, 0.00000000e+00, -4.45966159e-01, 2.75273069e+00, 2.27578303e+00, 5.78720924e+00, 0.00000000e+00, 0.0000000000, 1.0000000000, 0.0007873654
          23, 0.00000000e+00, 0.00000000e+00, 0.00000000e+00, 0.00000000e+00, 0.00000000e+00, 0.00000000e+00, 0.00000000e+00, 0.00000000e+00, 0.00000000e+00, 0.00000000e+00, 0.00000000e+00, 0.00000000e+00, -4.35719329e-01, 2.76334809e+00, 2.27388359e+00, 5.79721729e+00, 0.00000000e+00, 0.0000000000, 1.0000000000, 0.0008225838
          24, 0.00000000e+00, 0.00000000e+00, 0.00000000e+00, 0.00000000e+00, 0.00000000e+00, 0.00000000e+00, 0.00000000e+00, 0.00000000e+00, 0.00000000e+00, 0.00000000e+00, 0.00000000e+00, 0.00000000e+00, -4.31893574e-01, 2.76695170e+00, 2.27390788e+00, 5.80021200e+00, 0.00000000e+00, 0.0000000000, 1.0000000000, 0.0008578499
          25, 0.00000000e+00, 0.00000000e+00, 0.00000000e+00, 0.00000000e+00, 0.00000000e+00, 0.00000000e+00, 0.00000000e+00, 0.00000000e+00, 0.00000000e+00, 0.00000000e+00, 0.00000000e+00, 0.00000000e+00, -4.36242549e-01, 2.76176593e+00, 2.27459777e+00, 5.79421247e+00, 0.00000000e+00, 0.0000000000, 1.0000000000, 0.0008931835
          26, 0.00000000e+00, 0.00000000e+00, 0.00000000e+00, 0.00000000e+00, 0.00000000e+00, 0.00000000e+00, 0.00000000e+00, 0.00000000e+00, 0.00000000e+00, 0.00000000e+00, 0.00000000e+00, 0.00000000e+00, -4.48255818e-01, 2.74837333e+00, 2.27463364e+00, 5.77971486e+00, 0.00000000e+00, 0.0000000000, 1.0000000000, 0.0009285490
          27, 0.00000000e+00, 0.00000000e+00, 0.00000000e+00, 0.00000000e+00, 0.00000000e+00, 0.00000000e+00, 0.00000000e+00, 0.00000000e+00, 0.00000000e+00, 0.00000000e+00, 0.00000000e+00, 0.00000000e+00, -4.65864429e-01, 2.72901660e+00, 2.27277969e+00, 5.75892691e+00, 0.00000000e+00, 0.0000000000, 1.0000000000, 0.0009688020
          28, 0.00000000e+00, 0.00000000e+00, 0.00000000e+00, 0.00000000e+00, 0.00000000e+00, 0.00000000e+00, 0.00000000e+00, 0.00000000e+00, 0.00000000e+00, 0.00000000e+00, 0.00000000e+00, 0.00000000e+00, -4.85478136e-01, 2.70762623e+00, 2.26838215e+00, 5.73583792e+00, 0.00000000e+00, 0.0000000000, 1.0000000000, 0.0010044853
          29, 0.00000000e+00, 0.00000000e+00, 0.00000000e+00, 0.00000000e+00, 0.00000000e+00, 0.00000000e+00, 0.00000000e+00, 0.00000000e+00, 0.00000000e+00, 0.00000000e+00, 0.00000000e+00, 0.00000000e+00, -5.02840990e-01, 2.68896426e+00, 2.26122606e+00, 5.71537338e+00, 0.00000000e+00, 0.0000000000, 1.0000000000, 0.0010400017
          30, 0.00000000e+00, 0.00000000e+00, 0.00000000e+00, 0.00000000e+00, 0.00000000e+00, 0.00000000e+00, 0.00000000e+00, 0.00000000e+00, 0.00000000e+00, 0.00000000e+00, 0.00000000e+00, 0.00000000e+00, -5.13983694e-01, 2.67751926e+00, 2.25151683e+00, 5.70232772e+00, 0.00000000e+00, 0.0000000000, 1.0000000000, 0.0010752837
          31, 0.00000000e+00, 0.00000000e+00, 0.00000000e+00, 0.00000000e+00, 0.00000000e+00, 0.00000000e+00, 0.00000000e+00, 0.00000000e+00, 0.00000000e+00, 0.00000000e+00, 0.00000000e+00, 0.00000000e+00, -5.16364019e-01, 2.67605825e+00, 2.24011277e+00, 5.69991399e+00, 0.00000000e+00, 0.0000000000, 1.0000000000, 0.0011104186
          32, 0.00000000e+00, 0.00000000e+00, 0.00000000e+00, 0.00000000e+00, 0.00000000e+00, 0.00000000e+00, 0.00000000e+00, 0.00000000e+00, 0.00000000e+00, 0.00000000e+00, 0.00000000e+00, 0.00000000e+00, -5.10992380e-01, 2.68320126e+00, 2.22814758e+00, 5.70694660e+00, 0.00000000e+00, 0.0000000000, 1.0000000000, 0.0011458834
          33, 0.00000000e+00, 0.00000000e+00, 0.00000000e+00, 0.00000000e+00, 0.00000000e+00, 0.00000000e+00, 0.00000000e+00, 0.00000000e+00, 0.00000000e+00, 0.00000000e+00, 0.00000000e+00, 0.00000000e+00, -5.03175541e-01, 2.69282162e+00, 2.21671584e+00, 5.71691592e+00, 0.00000000e+00, 0.0000000000, 1.0000000000, 0.0011811654
          34, 0.00000000e+00, 0.00000000e+00, 0.00000000e+00, 0.00000000e+00, 0.00000000e+00, 0.00000000e+00, 0.00000000e+00, 0.00000000e+00, 0.00000000e+00, 0.00000000e+00, 0.00000000e+00, 0.00000000e+00, -4.98576311e-01, 2.69866108e+00, 2.20679948e+00, 5.72310389e+00, 0.00000000e+00, 0.0000000000, 1.0000000000, 0.0012163679
          35, 0.00000000e+00, 0.00000000e+00, 0.00000000e+00, 0.00000000e+00, 0.00000000e+00, 0.00000000e+00, 0.00000000e+00, 0.00000000e+00, 0.00000000e+00, 0.00000000e+00, 0.00000000e+00, 0.00000000e+00, -5.00908002e-01, 2.69679294e+00, 2.19853314e+00, 5.72128817e+00, 0.00000000e+00, 0.0000000000, 1.0000000000, 0.0012518684
          36, 0.00000000e+00, 0.00000000e+00, 0.00000000e+00, 0.00000000e+00, 0.00000000e+00, 0.00000000e+00, 0.00000000e+00, 0.00000000e+00, 0.00000000e+00, 0.00000000e+00, 0.00000000e+00, 0.00000000e+00, -5.11524458e-01, 2.68587537e+00, 2.19127624e+00, 5.71000892e+00, 0.00000000e+00, 0.0000000000, 1.0000000000, 0.0012869676
          37, 0.00000000e+00, 0.00000000e+00, 0.00000000e+00, 0.00000000e+00, 0.00000000e+00, 0.00000000e+00, 0.00000000e+00, 0.00000000e+00, 0.00000000e+00, 0.00000000e+00, 0.00000000e+00, 0.00000000e+00, -5.30024923e-01, 2.66642014e+00, 2.18383272e+00, 5.68973012e+00, 0.00000000e+00, 0.0000000000, 1.0000000000, 0.0013220509
          38, 0.00000000e+00, 0.00000000e+00, 0.00000000e+00, 0.00000000e+00, 0.00000000e+00, 0.00000000e+00, 0.00000000e+00, 0.00000000e+00, 0.00000000e+00, 0.00000000e+00, 0.00000000e+00, 0.00000000e+00, -5.54549191e-01, 2.64047237e+00, 2.17494817e+00, 5.66252902e+00, 0.00000000e+00, 0.0000000000, 1.0000000000, 0.0013572653
          39, 0.00000000e+00, 0.00000000e+00, 0.00000000e+00, 0.00000000e+00, 0.00000000e+00, 0.00000000e+00, 0.00000000e+00, 0.00000000e+00, 0.00000000e+00, 0.00000000e+00, 0.00000000e+00, 0.00000000e+00, -5.82010101e-01, 2.61143337e+00, 2.16355154e+00, 5.63193518e+00, 0.00000000e+00, 0.0000000000, 1.0000000000, 0.0013931672
          40, 0.00000000e+00, 0.00000000e+00, 0.00000000e+00, 0.00000000e+00, 0.00000000e+00, 0.00000000e+00, 0.00000000e+00, 0.00000000e+00, 0.00000000e+00, 0.00000000e+00, 0.00000000e+00, 0.00000000e+00, -6.08227923e-01, 2.58396182e+00, 2.14907118e+00, 5.60294642e+00, 0.00000000e+00, 0.0000000000, 1.0000000000, 0.0014309327
          41, 0.00000000e+00, 0.00000000e+00, 0.00000000e+00, 0.00000000e+00, 0.00000000e+00, 0.00000000e+00, 0.00000000e+00, 0.00000000e+00, 0.00000000e+00, 0.00000000e+00, 0.00000000e+00, 0.00000000e+00, -6.28759155e-01, 2.56304464e+00, 2.13155497e+00, 5.58109698e+00, 0.00000000e+00, 0.0000000000, 1.0000000000, 0.0014662345
          42, 0.00000000e+00, 0.00000000e+00, 0.00000000e+00, 0.00000000e+00, 0.00000000e+00, 0.00000000e+00, 0.00000000e+00, 0.00000000e+00, 0.00000000e+00, 0.00000000e+00, 0.00000000e+00, 0.00000000e+00, -6.40728930e-01, 2.55183344e+00, 2.11166953e+00, 5.57000292e+00, 0.00000000e+00, 0.0000000000, 1.0000000000, 0.0015027483
          43, 0.00000000e+00, 0.00000000e+00, 0.00000000e+00, 0.00000000e+00, 0.00000000e+00, 0.00000000e+00, 0.00000000e+00, 0.00000000e+00, 0.00000000e+00, 0.00000000e+00, 0.00000000e+00, 0.00000000e+00, -6.44368372e-01, 2.54985271e+00, 2.09064778e+00, 5.56920942e+00, 0.00000000e+00, 0.0000000000, 1.0000000000, 0.0015384157
          44, 0.00000000e+00, 0.00000000e+00, 0.00000000e+00, 0.00000000e+00, 0.00000000e+00, 0.00000000e+00, 0.00000000e+00, 0.00000000e+00, 0.00000000e+00, 0.00000000e+00, 0.00000000e+00, 0.00000000e+00, -6.43013592e-01, 2.55316648e+00, 2.07000318e+00, 5.57432951e+00, 0.00000000e+00, 0.0000000000, 1.0000000000, 0.0015739679
          45, 0.00000000e+00, 0.00000000e+00, 0.00000000e+00, 0.00000000e+00, 0.00000000e+00, 0.00000000e+00, 0.00000000e+00, 0.00000000e+00, 0.00000000e+00, 0.00000000e+00, 0.00000000e+00, 0.00000000e+00, -6.41406155e-01, 2.55649046e+00, 2.05108712e+00, 5.57951653e+00, 0.00000000e+00, 0.0000000000, 1.0000000000, 0.0016094009
          46, 0.00000000e+00, 0.00000000e+00, 0.00000000e+00, 0.00000000e+00, 0.00000000e+00, 0.00000000e+00, 0.00000000e+00, 0.00000000e+00, 0.00000000e+00, 0.00000000e+00, 0.00000000e+00, 0.00000000e+00, -6.43874813e-01, 2.55521116e+00, 2.03459838e+00, 5.57975759e+00, 0.00000000e+00, 0.0000000000, 1.0000000000, 0.0016447504
          47, 0.00000000e+00, 0.00000000e+00, 0.00000000e+00, 0.00000000e+00, 0.00000000e+00, 0.00000000e+00, 0.00000000e+00, 0.00000000e+00, 0.00000000e+00, 0.00000000e+00, 0.00000000e+00, 0.00000000e+00, -6.53784029e-01, 2.54586967e+00, 2.01993325e+00, 5.57131860e+00, 0.00000000e+00, 0.0000000000, 1.0000000000, 0.0016798655
          48, 0.00000000e+00, 0.00000000e+00, 0.00000000e+00, 0.00000000e+00, 0.00000000e+00, 0.00000000e+00, 0.00000000e+00, 0.00000000e+00, 0.00000000e+00, 0.00000000e+00, 0.00000000e+00, 0.00000000e+00, -6.72835391e-01, 2.52680473e+00, 2.00549589e+00, 5.55237174e+00, 0.00000000e+00, 0.0000000000, 1.0000000000, 0.0017150164
          49, 0.00000000e+00, 0.00000000e+00, 0.00000000e+00, 0.00000000e+00, 0.00000000e+00, 0.00000000e+00, 0.00000000e+00, 0.00000000e+00, 0.00000000e+00, 0.00000000e+00, 0.00000000e+00, 0.00000000e+00, -7.00734717e-01, 2.49843383e+00, 1.98943232e+00, 5.52323163e+00, 0.00000000e+00, 0.0000000000, 1.0000000000, 0.0017507156
          50, 0.00000000e+00, 0.00000000e+00, 0.00000000e+00, 0.00000000e+00, 0.00000000e+00, 0.00000000e+00, 0.00000000e+00, 0.00000000e+00, 0.00000000e+00, 0.00000000e+00, 0.00000000e+00, 0.00000000e+00, -7.34823214e-01, 2.46365086e+00, 1.97018175e+00, 5.48676835e+00, 0.00000000e+00, 0.0000000000, 1.0000000000, 0.0017862002
          51, 0.00000000e+00, 0.00000000e+00, 0.00000000e+00, 0.00000000e+00, 0.00000000e+00, 0.00000000e+00, 0.00000000e+00, 0.00000000e+00, 0.00000000e+00, 0.00000000e+00, 0.00000000e+00, 0.00000000e+00, -7.69609157e-01, 2.42836194e+00, 1.94691796e+00, 5.44915023e+00, 0.00000000e+00, 0.0000000000, 1.0000000000, 0.0018213669
          52, 0.00000000e+00, 0.00000000e+00, 0.00000000e+00, 0.00000000e+00, 0.00000000e+00, 0.00000000e+00, 0.00000000e+00, 0.00000000e+00, 0.00000000e+00, 0.00000000e+00, 0.00000000e+00, 0.00000000e+00, -7.97174759e-01, 2.40103176e+00, 1.91999658e+00, 5.41976394e+00, 0.00000000e+00, 0.0000000000, 1.0000000000, 0.0018504659
          53, 0.00000000e+00, 0.00000000e+00, 0.00000000e+00, 0.00000000e+00, 0.00000000e+00, 0.00000000e+00, 0.00000000e+00, 0.00000000e+00, 0.00000000e+00, 0.00000000e+00, 0.00000000e+00, 0.00000000e+00, -8.11011777e-01, 2.38838370e+00, 1.89152948e+00, 5.40654975e+00, 0.00000000e+00, 0.0000000000, 1.0000000000, 0.0018748482
          54, 0.00000000e+00, 0.00000000e+00, 0.00000000e+00, 0.00000000e+00, 0.00000000e+00, 0.00000000e+00, 0.00000000e+00, 0.00000000e+00, 0.00000000e+00, 0.00000000e+00, 0.00000000e+00, 0.00000000e+00, -8.11200292e-01, 2.38983667e+00, 1.86519260e+00, 5.40925954e+00, 0.00000000e+00, 0.0000000000, 1.0000000000, 0.0018992503
          55, 0.00000000e+00, 0.00000000e+00, 0.00000000e+00, 0.00000000e+00, 0.00000000e+00, 0.00000000e+00, 0.00000000e+00, 0.00000000e+00, 0.00000000e+00, 0.00000000e+00, 0.00000000e+00, 0.00000000e+00, -8.04440151e-01, 2.39791115e+00, 1.84529588e+00, 5.41957580e+00, 0.00000000e+00, 0.0000000000, 1.0000000000, 0.0019230644
          56, 0.00000000e+00, 0.00000000e+00, 0.00000000e+00, 0.00000000e+00, 0.00000000e+00, 0.00000000e+00, 0.00000000e+00, 0.00000000e+00, 0.00000000e+00, 0.00000000e+00, 0.00000000e+00, 0.00000000e+00, -7.98879647e-01, 2.40401462e+00, 1.83481561e+00, 5.42793245e+00, 0.00000000e+00, 0.0000000000, 1.0000000000, 0.0019467314
          57, 0.00000000e+00, 0.00000000e+00, 0.00000000e+00, 0.00000000e+00, 0.00000000e+00, 0.00000000e+00, 0.00000000e+00, 0.00000000e+00, 0.00000000e+00, 0.00000000e+00, 0.00000000e+00, 0.00000000e+00, -8.00309342e-01, 2.40227376e+00, 1.83358515e+00, 5.42792720e+00, 0.00000000e+00, 0.0000000000, 1.0000000000, 0.0019705812
          58, 0.00000000e+00, 0.00000000e+00, 0.00000000e+00, 0.00000000e+00, 0.00000000e+00, 0.00000000e+00, 0.00000000e+00, 0.00000000e+00, 0.00000000e+00, 0.00000000e+00, 0.00000000e+00, 0.00000000e+00, -8.11507278e-01, 2.38996221e+00, 1.83835704e+00, 5.41664533e+00, 0.00000000e+00, 0.0000000000, 1.0000000000, 0.0019946973
          59, 0.00000000e+00, 0.00000000e+00, 0.00000000e+00, 0.00000000e+00, 0.00000000e+00, 0.00000000e+00, 0.00000000e+00, 0.00000000e+00, 0.00000000e+00, 0.00000000e+00, 0.00000000e+00, 0.00000000e+00, -8.32716039e-01, 2.36690907e+00, 1.84470324e+00, 5.39385110e+00, 0.00000000e+00, 0.0000000000, 1.0000000000, 0.0020184477
          60, 0.00000000e+00, 0.00000000e+00, 0.00000000e+00, 0.00000000e+00, 0.00000000e+00, 0.00000000e+00, 0.00000000e+00, 0.00000000e+00, 0.00000000e+00, 0.00000000e+00, 0.00000000e+00, 0.00000000e+00, -8.61902402e-01, 2.33527605e+00, 1.84884644e+00, 5.36166966e+00, 0.00000000e+00, 0.0000000000, 1.0000000000, 0.0020422657
          61, 0.00000000e+00, 0.00000000e+00, 0.00000000e+00, 0.00000000e+00, 0.00000000e+00, 0.00000000e+00, 0.00000000e+00, 0.00000000e+00, 0.00000000e+00, 0.00000000e+00, 0.00000000e+00, 0.00000000e+00, -8.94411914e-01, 2.30006589e+00, 1.84847569e+00, 5.32517832e+00, 0.00000000e+00, 0.0000000000, 1.0000000000, 0.0020659328
          62, 0.00000000e+00, 0.00000000e+00, 0.00000000e+00, 0.00000000e+00, 0.00000000e+00, 0.00000000e+00, 0.00000000e+00, 0.00000000e+00, 0.00000000e+00, 0.00000000e+00, 0.00000000e+00, 0.00000000e+00, -9.22867463e-01, 2.26941152e+00, 1.84282877e+00, 5.29293521e+00, 0.00000000e+00, 0.0000000000, 1.0000000000, 0.0020895640
          63, 0.00000000e+00, 0.00000000e+00, 0.00000000e+00, 0.00000000e+00, 0.00000000e+00, 0.00000000e+00, 0.00000000e+00, 0.00000000e+00, 0.00000000e+00, 0.00000000e+00, 0.00000000e+00, 0.00000000e+00, -9.39202848e-01, 2.25234153e+00, 1.83253961e+00, 5.27485412e+00, 0.00000000e+00, 0.0000000000, 1.0000000000, 0.0021137158
          64, 0.00000000e+00, 0.00000000e+00, 0.00000000e+00, 0.00000000e+00, 0.00000000e+00, 0.00000000e+00, 0.00000000e+00, 0.00000000e+00, 0.00000000e+00, 0.00000000e+00, 0.00000000e+00, 0.00000000e+00, -9.39460171e-01, 2.25310826e+00, 1.81946947e+00, 5.27594044e+00, 0.00000000e+00, 0.0000000000, 1.0000000000, 0.0021374822
          65, 0.00000000e+00, 0.00000000e+00, 0.00000000e+00, 0.00000000e+00, 0.00000000e+00, 0.00000000e+00, 0.00000000e+00, 0.00000000e+00, 0.00000000e+00, 0.00000000e+00, 0.00000000e+00, 0.00000000e+00, -9.27062372e-01, 2.26745464e+00, 1.80637850e+00, 5.29175135e+00, 0.00000000e+00, 0.0000000000, 1.0000000000, 0.0021611333
          66, 0.00000000e+00, 0.00000000e+00, 0.00000000e+00, 0.00000000e+00, 0.00000000e+00, 0.00000000e+00, 0.00000000e+00, 0.00000000e+00, 0.00000000e+00, 0.00000000e+00, 0.00000000e+00, 0.00000000e+00, -9.10071079e-01, 2.28620061e+00, 1.79622974e+00, 5.31228735e+00, 0.00000000e+00, 0.0000000000, 1.0000000000, 0.0021850149
          67, 0.00000000e+00, 0.00000000e+00, 0.00000000e+00, 0.00000000e+00, 0.00000000e+00, 0.00000000e+00, 0.00000000e+00, 0.00000000e+00, 0.00000000e+00, 0.00000000e+00, 0.00000000e+00, 0.00000000e+00, -8.96155814e-01, 2.30106032e+00, 1.79106432e+00, 5.32858136e+00, 0.00000000e+00, 0.0000000000, 1.0000000000, 0.0022086819
          68, 0.00000000e+00, 0.00000000e+00, 0.00000000e+00, 0.00000000e+00, 0.00000000e+00, 0.00000000e+00, 0.00000000e+00, 0.00000000e+00, 0.00000000e+00, 0.00000000e+00, 0.00000000e+00, 0.00000000e+00, -8.90105268e-01, 2.30710256e+00, 1.79112077e+00, 5.33533932e+00, 0.00000000e+00, 0.0000000000, 1.0000000000, 0.0022328814
          69, 0.00000000e+00, 0.00000000e+00, 0.00000000e+00, 0.00000000e+00, 0.00000000e+00, 0.00000000e+00, 0.00000000e+00, 0.00000000e+00, 0.00000000e+00, 0.00000000e+00, 0.00000000e+00, 0.00000000e+00, -8.94245681e-01, 2.30200839e+00, 1.79448186e+00, 5.33001019e+00, 0.00000000e+00, 0.0000000000, 1.0000000000, 0.0022566319
          70, 0.00000000e+00, 0.00000000e+00, 0.00000000e+00, 0.00000000e+00, 0.00000000e+00, 0.00000000e+00, 0.00000000e+00, 0.00000000e+00, 0.00000000e+00, 0.00000000e+00, 0.00000000e+00, 0.00000000e+00, -9.08207935e-01, 2.28625279e+00, 1.79849003e+00, 5.31288042e+00, 0.00000000e+00, 0.0000000000, 1.0000000000, 0.0022802671
          71, 0.00000000e+00, 0.00000000e+00, 0.00000000e+00, 0.00000000e+00, 0.00000000e+00, 0.00000000e+00, 0.00000000e+00, 0.00000000e+00, 0.00000000e+00, 0.00000000e+00, 0.00000000e+00, 0.00000000e+00, -9.29051809e-01, 2.26302661e+00, 1.80078563e+00, 5.28697739e+00, 0.00000000e+00, 0.0000000000, 1.0000000000, 0.0023040652
          72, 0.00000000e+00, 0.00000000e+00, 0.00000000e+00, 0.00000000e+00, 0.00000000e+00, 0.00000000e+00, 0.00000000e+00, 0.00000000e+00, 0.00000000e+00, 0.00000000e+00, 0.00000000e+00, 0.00000000e+00, -9.51148393e-01, 2.23854314e+00, 1.79992310e+00, 5.25863270e+00, 0.00000000e+00, 0.0000000000, 1.0000000000, 0.0023277481
          73, 0.00000000e+00, 0.00000000e+00, 0.00000000e+00, 0.00000000e+00, 0.00000000e+00, 0.00000000e+00, 0.00000000e+00, 0.00000000e+00, 0.00000000e+00, 0.00000000e+00, 0.00000000e+00, 0.00000000e+00, -9.66828232e-01, 2.22146497e+00, 1.79559459e+00, 5.23748135e+00, 0.00000000e+00, 0.0000000000, 1.0000000000, 0.0023516973
          74, 0.00000000e+00, 0.00000000e+00, 0.00000000e+00, 0.00000000e+00, 0.00000000e+00, 0.00000000e+00, 0.00000000e+00, 0.00000000e+00, 0.00000000e+00, 0.00000000e+00, 0.00000000e+00, 0.00000000e+00, -9.69903846e-01, 2.21879223e+00, 1.78868807e+00, 5.23216185e+00, 0.00000000e+00, 0.0000000000, 1.0000000000, 0.0023754994
          75, 0.00000000e+00, 0.00000000e+00, 0.00000000e+00, 0.00000000e+00, 0.00000000e+00, 0.00000000e+00, 0.00000000e+00, 0.00000000e+00, 0.00000000e+00, 0.00000000e+00, 0.00000000e+00, 0.00000000e+00, -9.60173721e-01, 2.23045509e+00, 1.78089590e+00, 5.24349502e+00, 0.00000000e+00, 0.0000000000, 1.0000000000, 0.0023991505
          76, 0.00000000e+00, 0.00000000e+00, 0.00000000e+00, 0.00000000e+00, 0.00000000e+00, 0.00000000e+00, 0.00000000e+00, 0.00000000e+00, 0.00000000e+00, 0.00000000e+00, 0.00000000e+00, 0.00000000e+00, -9.43487906e-01, 2.24948742e+00, 1.77414173e+00, 5.26382592e+00, 0.00000000e+00, 0.0000000000, 1.0000000000, 0.0024228652
          77, 0.00000000e+00, 0.00000000e+00, 0.00000000e+00, 0.00000000e+00, 0.00000000e+00, 0.00000000e+00, 0.00000000e+00, 0.00000000e+00, 0.00000000e+00, 0.00000000e+00, 0.00000000e+00, 0.00000000e+00, -9.27293216e-01, 2.26752329e+00, 1.76983726e+00, 5.28355524e+00, 0.00000000e+00, 0.0000000000, 1.0000000000, 0.0024510662
          78, 0.00000000e+00, 0.00000000e+00, 0.00000000e+00, 0.00000000e+00, 0.00000000e+00, 0.00000000e+00, 0.00000000e+00, 0.00000000e+00, 0.00000000e+00, 0.00000000e+00, 0.00000000e+00, 0.00000000e+00, -9.17033641e-01, 2.27877272e+00, 1.76827597e+00, 5.29608320e+00, 0.00000000e+00, 0.0000000000, 1.0000000000, 0.0024753332
          79, 0.00000000e+00, 0.00000000e+00, 0.00000000e+00, 0.00000000e+00, 0.00000000e+00, 0.00000000e+00, 0.00000000e+00, 0.00000000e+00, 0.00000000e+00, 0.00000000e+00, 0.00000000e+00, 0.00000000e+00, -9.15416560e-01, 2.28053385e+00, 1.76850951e+00, 5.29837019e+00, 0.00000000e+00, 0.0000000000, 1.0000000000, 0.0024991830
          80, 0.00000000e+00, 0.00000000e+00, 0.00000000e+00, 0.00000000e+00, 0.00000000e+00, 0.00000000e+00, 0.00000000e+00, 0.00000000e+00, 0.00000000e+00, 0.00000000e+00, 0.00000000e+00, 0.00000000e+00, -9.22962563e-01, 2.27241841e+00, 1.76878446e+00, 5.28993712e+00, 0.00000000e+00, 0.0000000000, 1.0000000000, 0.0025230328
          81, 0.00000000e+00, 0.00000000e+00, 0.00000000e+00, 0.00000000e+00, 0.00000000e+00, 0.00000000e+00, 0.00000000e+00, 0.00000000e+00, 0.00000000e+00, 0.00000000e+00, 0.00000000e+00, 0.00000000e+00, -9.38537168e-01, 2.25574730e+00, 1.76721640e+00, 5.27214397e+00, 0.00000000e+00, 0.0000000000, 1.0000000000, 0.0025468151
          82, 0.00000000e+00, 0.00000000e+00, 0.00000000e+00, 0.00000000e+00, 0.00000000e+00, 0.00000000e+00, 0.00000000e+00, 0.00000000e+00, 0.00000000e+00, 0.00000000e+00, 0.00000000e+00, 0.00000000e+00, -9.59572966e-01, 2.23335289e+00, 1.76234290e+00, 5.24802054e+00, 0.00000000e+00, 0.0000000000, 1.0000000000, 0.0025708993
          83, 0.00000000e+00, 0.00000000e+00, 0.00000000e+00, 0.00000000e+00, 0.00000000e+00, 0.00000000e+00, 0.00000000e+00, 0.00000000e+00, 0.00000000e+00, 0.00000000e+00, 0.00000000e+00, 0.00000000e+00, -9.82231541e-01, 2.20945935e+00, 1.75343451e+00, 5.22226064e+00, 0.00000000e+00, 0.0000000000, 1.0000000000, 0.0025951147
          84, 0.00000000e+00, 0.00000000e+00, 0.00000000e+00, 0.00000000e+00, 0.00000000e+00, 0.00000000e+00, 0.00000000e+00, 0.00000000e+00, 0.00000000e+00, 0.00000000e+00, 0.00000000e+00, 0.00000000e+00, -1.00204069e+00, 2.18899432e+00, 1.74062485e+00, 5.20056330e+00, 0.00000000e+00, 0.0000000000, 1.0000000000, 0.0026193659
          85, 0.00000000e+00, 0.00000000e+00, 0.00000000e+00, 0.00000000e+00, 0.00000000e+00, 0.00000000e+00, 0.00000000e+00, 0.00000000e+00, 0.00000000e+00, 0.00000000e+00, 0.00000000e+00, 0.00000000e+00, -1.01540768e+00, 2.17584395e+00, 1.72492427e+00, 5.18756876e+00, 0.00000000e+00, 0.0000000000, 1.0000000000, 0.0026432514
          86, 0.00000000e+00, 0.00000000e+00, 0.00000000e+00, 0.00000000e+00, 0.00000000e+00, 0.00000000e+00, 0.00000000e+00, 0.00000000e+00, 0.00000000e+00, 0.00000000e+00, 0.00000000e+00, 0.00000000e+00, -1.02142094e+00, 2.17079025e+00, 1.70810769e+00, 5.18421817e+00, 0.00000000e+00, 0.0000000000, 1.0000000000, 0.0026669343
          87, 0.00000000e+00, 0.00000000e+00, 0.00000000e+00, 0.00000000e+00, 0.00000000e+00, 0.00000000e+00, 0.00000000e+00, 0.00000000e+00, 0.00000000e+00, 0.00000000e+00, 0.00000000e+00, 0.00000000e+00, -1.02235857e+00, 2.17105540e+00, 1.69237287e+00, 5.18714438e+00, 0.00000000e+00, 0.0000000000, 1.0000000000, 0.0026905815
          88, 0.00000000e+00, 0.00000000e+00, 0.00000000e+00, 0.00000000e+00, 0.00000000e+00, 0.00000000e+00, 0.00000000e+00, 0.00000000e+00, 0.00000000e+00, 0.00000000e+00, 0.00000000e+00, 0.00000000e+00, -1.02231990e+00, 2.17201056e+00, 1.67968125e+00, 5.19087219e+00, 0.00000000e+00, 0.0000000000, 1.0000000000, 0.0027145147
          89, 0.00000000e+00, 0.00000000e+00, 0.00000000e+00, 0.00000000e+00, 0.00000000e+00, 0.00000000e+00, 0.00000000e+00, 0.00000000e+00, 0.00000000e+00, 0.00000000e+00, 0.00000000e+00, 0.00000000e+00, -1.02529444e+00, 2.16934519e+00, 1.67099248e+00, 5.19046259e+00, 0.00000000e+00, 0.0000000000, 1.0000000000, 0.0027384679
          90, 0.00000000e+00, 0.00000000e+00, 0.00000000e+00, 0.00000000e+00, 0.00000000e+00, 0.00000000e+00, 0.00000000e+00, 0.00000000e+00, 0.00000000e+00, 0.00000000e+00, 0.00000000e+00, 0.00000000e+00, -1.03393649e+00, 2.16030227e+00, 1.66585454e+00, 5.18283204e+00, 0.00000000e+00, 0.0000000000, 1.0000000000, 0.0027621667