TITLE = "SU2 Simulation"
VARIABLES = "Iteration","CL","CD","CSF","CMx","CMy","CMz","CFx","CFy","CFz","CL/CD","AoA","Custom_ObjFunc","Res_Flow[0]","Res_Flow[1]","Res_Flow[2]","Res_Flow[3]","Res_Flow[4]","Linear_Solver_Iterations","CFL_Number","Time(min)"
ZONE T= "Convergence history"
           0, 0.00000000e+00, 0.00000000e+00, 0.00000000e+00, 0.00000000e+00, 0.00000000e+00, 0.00000000e+00, 0.00000000e+00, 0.00000000e+00, 0.00000000e+00, 0.00000000e+00, 0.00000000e+00, 0.00000000e+00, 1.76073235e+00, -2.34902846e-01, 5.01458129e+00, -1.15411998e+01, 8.04763170e+00, 2.83150791e+00, 0.00000000e+00, 0.0000000000, 1.0000000000, 0.0000160495
           1, 0.00000000e+00, 0.00000000e+00, 0.00000000e+00, 0.00000000e+00, 0.00000000e+00, 0.00000000e+00, 0.00000000e+00, 0.00000000e+00, 0.00000000e+00, 0.00000000e+00, 0.00000000e+00, 0.00000000e+00, 1.69768210e+00, -2.97953096e-01, 4.94908488e+00, 3.14088444e+00, 7.98109126e+00, 2.76845772e+00, 0.00000000e+00, 0.0000000000, 1.0000000000, 0.0000303984
           2, 0.00000000e+00, 0.00000000e+00, 0.00000000e+00, 0.00000000e+00, 0.00000000e+00, 0.00000000e+00, 0.00000000e+00, 0.00000000e+00, 0.00000000e+00, 0.00000000e+00, 0.00000000e+00, 0.00000000e+00, 1.63931046e+00, -3.56324734e-01, 4.88746878e+00, 3.37453137e+00, 7.91967489e+00, 2.71008633e+00, 0.00000000e+00, 0.0000000000, 1.0000000000, 0.0000429153
           3, 0.00000000e+00, 0.00000000e+00, 0.00000000e+00, 0.00000000e+00, 0.00000000e+00, 0.00000000e+00, 0.00000000e+00, 0.00000000e+00, 0.00000000e+00, 0.00000000e+00, 0.00000000e+00, 0.00000000e+00, 1.58083950e+00, -4.14795696e-01, 4.82483067e+00, 3.48959918e+00, 7.85753550e+00, 2.65161624e+00, 0.00000000e+00, 0.0000000000, 1.0000000000, 0.0000554840
           4, 0.00000000e+00, 0.00000000e+00, 0.00000000e+00, 0.00000000e+00, 0.00000000e+00, 0.00000000e+00, 0.00000000e+00, 0.00000000e+00, 0.00000000e+00, 0.00000000e+00, 0.00000000e+00, 0.00000000e+00, 1.51997396e+00, -4.75661232e-01, 4.75910300e+00, 3.55556419e+00, 7.79210040e+00, 2.59075303e+00, 0.00000000e+00, 0.0000000000, 1.0000000000, 0.0000682990
           5, 0.00000000e+00, 0.00000000e+00, 0.00000000e+00, 0.00000000e+00, 0.00000000e+00, 0.00000000e+00, 0.00000000e+00, 0.00000000e+00, 0.00000000e+00, 0.00000000e+00, 0.00000000e+00, 0.00000000e+00, 1.45611951e+00, -5.39515686e-01, 4.69019791e+00, 3.59313012e+00, 7.72300466e+00, 2.52690394e+00, 0.00000000e+00, 0.0000000000, 1.0000000000, 0.0000811497
           6, 0.00000000e+00, 0.00000000e+00, 0.00000000e+00, 0.00000000e+00, 0.00000000e+00, 0.00000000e+00, 0.00000000e+00, 0.00000000e+00, 0.00000000e+00, 0.00000000e+00, 0.00000000e+00, 0.00000000e+00, 1.38991632e+00, -6.05718876e-01, 4.61960100e+00, 3.61098666e+00, 7.65153608e+00, 2.46071178e+00, 0.00000000e+00, 0.0000000000, 1.0000000000, 0.0000939806
           7, 0.00000000e+00, 0.00000000e+00, 0.00000000e+00, 0.00000000e+00, 0.00000000e+00, 0.00000000e+00, 0.00000000e+00, 0.00000000e+00, 0.00000000e+00, 0.00000000e+00, 0.00000000e+00, 0.00000000e+00, 1.32301092e+00, -6.72624276e-01, 4.55019119e+00, 3.61360474e+00, 7.58041086e+00, 2.39382674e+00, 0.00000000e+00, 0.0000000000, 1.0000000000, 0.0001071970
           8, 0.00000000e+00, 0.00000000e+00, 0.00000000e+00, 0.00000000e+00, 0.00000000e+00, 0.00000000e+00, 0.00000000e+00, 0.00000000e+00, 0.00000000e+00, 0.00000000e+00, 0.00000000e+00, 0.00000000e+00, 1.25783296e+00, -7.37802232e-01, 4.48581313e+00, 3.60368370e+00, 7.51340629e+00, 2.32868144e+00, 0.00000000e+00, 0.0000000000, 1.0000000000, 0.0001201471
           9, 0.00000000e+00, 0.00000000e+00, 0.00000000e+00, 0.00000000e+00, 0.00000000e+00, 0.00000000e+00, 0.00000000e+00, 0.00000000e+00, 0.00000000e+00, 0.00000000e+00, 0.00000000e+00, 0.00000000e+00, 1.19712783e+00, -7.98507367e-01, 4.43015125e+00, 3.58305615e+00, 7.45435390e+00, 2.26801885e+00, 0.00000000e+00, 0.0000000000, 1.0000000000, 0.0001331806
          10, 0.00000000e+00, 0.00000000e+00, 0.00000000e+00, 0.00000000e+00, 0.00000000e+00, 0.00000000e+00, 0.00000000e+00, 0.00000000e+00, 0.00000000e+00, 0.00000000e+00, 0.00000000e+00, 0.00000000e+00, 1.14316151e+00, -8.52473680e-01, 4.38510613e+00, 3.55307734e+00, 7.40554358e+00, 2.21408974e+00, 0.00000000e+00, 0.0000000000, 1.0000000000, 0.0001461148
          11, 0.00000000e+00, 0.00000000e+00, 0.00000000e+00, 0.00000000e+00, 0.00000000e+00, 0.00000000e+00, 0.00000000e+00, 0.00000000e+00, 0.00000000e+00, 0.00000000e+00, 0.00000000e+00, 0.00000000e+00, 1.09688605e+00, -8.98749148e-01, 4.34983178e+00, 3.51482506e+00, 7.36657710e+00, 2.16781278e+00, 0.00000000e+00, 0.0000000000, 1.0000000000, 0.0001590649
          12, 0.00000000e+00, 0.00000000e+00, 0.00000000e+00, 0.00000000e+00, 0.00000000e+00, 0.00000000e+00, 0.00000000e+00, 0.00000000e+00, 0.00000000e+00, 0.00000000e+00, 0.00000000e+00, 0.00000000e+00, 1.05761311e+00, -9.38022084e-01, 4.32134377e+00, 3.46921975e+00, 7.33473220e+00, 2.12844993e+00, 0.00000000e+00, 0.0000000000, 1.0000000000, 0.0001719316
          13, 0.00000000e+00, 0.00000000e+00, 0.00000000e+00, 0.00000000e+00, 0.00000000e+00, 0.00000000e+00, 0.00000000e+00, 0.00000000e+00, 0.00000000e+00, 0.00000000e+00, 0.00000000e+00, 0.00000000e+00, 1.02344058e+00, -9.72194614e-01, 4.29605905e+00, 3.41710652e+00, 7.30644115e+00, 2.09403982e+00, 0.00000000e+00, 0.0000000000, 1.0000000000, 0.0001847982
          14, 0.00000000e+00, 0.00000000e+00, 0.00000000e+00, 0.00000000e+00, 0.00000000e+00, 0.00000000e+00, 0.00000000e+00, 0.00000000e+00, 0.00000000e+00, 0.00000000e+00, 0.00000000e+00, 0.00000000e+00, 9.92068323e-01, -1.00356687e+00, 4.27099699e+00, 3.35931939e+00, 7.27859949e+00, 2.06221810e+00, 0.00000000e+00, 0.0000000000, 1.0000000000, 0.0001977324
          15, 0.00000000e+00, 0.00000000e+00, 0.00000000e+00, 0.00000000e+00, 0.00000000e+00, 0.00000000e+00, 0.00000000e+00, 0.00000000e+00, 0.00000000e+00, 0.00000000e+00, 0.00000000e+00, 0.00000000e+00, 9.61463648e-01, -1.03417155e+00, 4.24418352e+00, 3.29673988e+00, 7.24908844e+00, 2.03088147e+00, 0.00000000e+00, 0.0000000000, 1.0000000000, 0.0002106508
          16, 0.00000000e+00, 0.00000000e+00, 0.00000000e+00, 0.00000000e+00, 0.00000000e+00, 0.00000000e+00, 0.00000000e+00, 0.00000000e+00, 0.00000000e+00, 0.00000000e+00, 0.00000000e+00, 0.00000000e+00, 9.30153366e-01, -1.06548183e+00, 4.21454016e+00, 3.23035665e+00, 7.21672111e+00, 1.99847485e+00, 0.00000000e+00, 0.0000000000, 1.0000000000, 0.0002239148
          17, 0.00000000e+00, 0.00000000e+00, 0.00000000e+00, 0.00000000e+00, 0.00000000e+00, 0.00000000e+00, 0.00000000e+00, 0.00000000e+00, 0.00000000e+00, 0.00000000e+00, 0.00000000e+00, 0.00000000e+00, 8.97228727e-01, -1.09840647e+00, 4.18161764e+00, 3.16132717e+00, 7.18098676e+00, 1.96399153e+00, 0.00000000e+00, 0.0000000000, 1.0000000000, 0.0002369642
          18, 0.00000000e+00, 0.00000000e+00, 0.00000000e+00, 0.00000000e+00, 0.00000000e+00, 0.00000000e+00, 0.00000000e+00, 0.00000000e+00, 0.00000000e+00, 0.00000000e+00, 0.00000000e+00, 0.00000000e+00, 8.62224661e-01, -1.13341053e+00, 4.14535411e+00, 3.09103317e+00, 7.14180146e+00, 1.92684961e+00, 0.00000000e+00, 0.0000000000, 1.0000000000, 0.0002498666
          19, 0.00000000e+00, 0.00000000e+00, 0.00000000e+00, 0.00000000e+00, 0.00000000e+00, 0.00000000e+00, 0.00000000e+00, 0.00000000e+00, 0.00000000e+00, 0.00000000e+00, 0.00000000e+00, 0.00000000e+00, 8.24980210e-01, -1.17065498e+00, 4.10590312e+00, 3.02110703e+00, 7.09932559e+00, 1.88675228e+00, 0.00000000e+00, 0.0000000000, 1.0000000000, 0.0002627492
          20, 0.00000000e+00, 0.00000000e+00, 0.00000000e+00, 0.00000000e+00, 0.00000000e+00, 0.00000000e+00, 0.00000000e+00, 0.00000000e+00, 0.00000000e+00, 0.00000000e+00, 0.00000000e+00, 0.00000000e+00, 7.85523871e-01, -1.21011132e+00, 4.06352418e+00, 2.95339214e+00, 7.05384571e+00, 1.84357625e+00, 0.00000000e+00, 0.0000000000, 1.0000000000, 0.0002756159
          21, 0.00000000e+00, 0.00000000e+00, 0.00000000e+00, 0.00000000e+00, 0.00000000e+00, 0.00000000e+00, 0.00000000e+00, 0.00000000e+00, 0.00000000e+00, 0.00000000e+00, 0.00000000e+00, 0.00000000e+00, 7.43991910e-01, -1.25164328e+00, 4.01851695e+00, 2.88979165e+00, 7.00570252e+00, 1.79729672e+00, 0.00000000e+00, 0.0000000000, 1.0000000000, 0.0002885501
          22, 0.00000000e+00, 0.00000000e+00, 0.00000000e+00, 0.00000000e+00, 0.00000000e+00, 0.00000000e+00, 0.00000000e+00, 0.00000000e+00, 0.00000000e+00, 0.00000000e+00, 0.00000000e+00, 0.00000000e+00, 7.00574834e-01, -1.29506036e+00, 3.97118376e+00, 2.83199487e+00, 6.95524895e+00, 1.74794452e+00, 0.00000000e+00, 0.0000000000, 1.0000000000, 0.0003015161
          23, 0.00000000e+00, 0.00000000e+00, 0.00000000e+00, 0.00000000e+00, 0.00000000e+00, 0.00000000e+00, 0.00000000e+00, 0.00000000e+00, 0.00000000e+00, 0.00000000e+00, 0.00000000e+00, 0.00000000e+00, 6.55484374e-01, -1.34015082e+00, 3.92180945e+00, 2.78114843e+00, 6.90282688e+00, 1.69558809e+00, 0.00000000e+00, 0.0000000000, 1.0000000000, 0.0003144503
          24, 0.00000000e+00, 0.00000000e+00, 0.00000000e+00, 0.00000000e+00, 0.00000000e+00, 0.00000000e+00, 0.00000000e+00, 0.00000000e+00, 0.00000000e+00, 0.00000000e+00, 0.00000000e+00, 0.00000000e+00, 6.08934380e-01, -1.38670082e+00, 3.87065194e+00, 2.73761916e+00, 6.84875521e+00, 1.64033308e+00, 0.00000000e+00, 0.0000000000, 1.0000000000, 0.0003272812
          25, 0.00000000e+00, 0.00000000e+00, 0.00000000e+00, 0.00000000e+00, 0.00000000e+00, 0.00000000e+00, 0.00000000e+00, 0.00000000e+00, 0.00000000e+00, 0.00000000e+00, 0.00000000e+00, 0.00000000e+00, 5.61130712e-01, -1.43450448e+00, 3.81793894e+00, 2.70098303e+00, 6.79332487e+00, 1.58233385e+00, 0.00000000e+00, 0.0000000000, 1.0000000000, 0.0003408670
          26, 0.00000000e+00, 0.00000000e+00, 0.00000000e+00, 0.00000000e+00, 0.00000000e+00, 0.00000000e+00, 0.00000000e+00, 0.00000000e+00, 0.00000000e+00, 0.00000000e+00, 0.00000000e+00, 0.00000000e+00, 5.12266804e-01, -1.48336839e+00, 3.76386857e+00, 2.67024549e+00, 6.73679797e+00, 1.52181165e+00, 0.00000000e+00, 0.0000000000, 1.0000000000, 0.0003543814
          27, 0.00000000e+00, 0.00000000e+00, 0.00000000e+00, 0.00000000e+00, 0.00000000e+00, 0.00000000e+00, 0.00000000e+00, 0.00000000e+00, 0.00000000e+00, 0.00000000e+00, 0.00000000e+00, 0.00000000e+00, 4.62522621e-01, -1.53311257e+00, 3.70861196e+00, 2.64416463e+00, 6.67940933e+00, 1.45907410e+00, 0.00000000e+00, 0.0000000000, 1.0000000000, 0.0003674825
          28, 0.00000000e+00, 0.00000000e+00, 0.00000000e+00, 0.00000000e+00, 0.00000000e+00, 0.00000000e+00, 0.00000000e+00, 0.00000000e+00, 0.00000000e+00, 0.00000000e+00, 0.00000000e+00, 0.00000000e+00, 4.12065552e-01, -1.58356964e+00, 3.65231694e+00, 2.62152815e+00, 6.62136934e+00, 1.39453036e+00, 0.00000000e+00, 0.0000000000, 1.0000000000, 0.0003805161
          29, 0.00000000e+00, 0.00000000e+00, 0.00000000e+00, 0.00000000e+00, 0.00000000e+00, 0.00000000e+00, 0.00000000e+00, 0.00000000e+00, 0.00000000e+00, 0.00000000e+00, 0.00000000e+00, 0.00000000e+00, 3.61052270e-01, -1.63458293e+00, 3.59511214e+00, 2.60131189e+00, 6.56286742e+00, 1.32869514e+00, 0.00000000e+00, 0.0000000000, 1.0000000000, 0.0003934979
          30, 0.00000000e+00, 0.00000000e+00, 0.00000000e+00, 0.00000000e+00, 0.00000000e+00, 0.00000000e+00, 0.00000000e+00, 0.00000000e+00, 0.00000000e+00, 0.00000000e+00, 0.00000000e+00, 0.00000000e+00, 3.09630926e-01, -1.68600427e+00, 3.53711112e+00, 2.58272837e+00, 6.50407566e+00, 1.26217517e+00, 0.00000000e+00, 0.0000000000, 1.0000000000, 0.0004064480
          31, 0.00000000e+00, 0.00000000e+00, 0.00000000e+00, 0.00000000e+00, 0.00000000e+00, 0.00000000e+00, 0.00000000e+00, 0.00000000e+00, 0.00000000e+00, 0.00000000e+00, 0.00000000e+00, 0.00000000e+00, 2.57943277e-01, -1.73769192e+00, 3.47841624e+00, 2.56520833e+00, 6.44515220e+00, 1.19563410e+00, 0.00000000e+00, 0.0000000000, 1.0000000000, 0.0004193823
          32, 0.00000000e+00, 0.00000000e+00, 0.00000000e+00, 0.00000000e+00, 0.00000000e+00, 0.00000000e+00, 0.00000000e+00, 0.00000000e+00, 0.00000000e+00, 0.00000000e+00, 0.00000000e+00, 0.00000000e+00, 2.06126507e-01, -1.78950869e+00, 3.41912220e+00, 2.54835536e+00, 6.38624440e+00, 1.12973862e+00, 0.00000000e+00, 0.0000000000, 1.0000000000, 0.0004323165
          33, 0.00000000e+00, 0.00000000e+00, 0.00000000e+00, 0.00000000e+00, 0.00000000e+00, 0.00000000e+00, 0.00000000e+00, 0.00000000e+00, 0.00000000e+00, 0.00000000e+00, 0.00000000e+00, 0.00000000e+00, 1.54314589e-01, -1.84132061e+00, 3.35931917e+00, 2.53189772e+00, 6.32749142e+00, 1.06509900e+00, 0.00000000e+00, 0.0000000000, 1.0000000000, 0.0004456321
          34, 0.00000000e+00, 0.00000000e+00, 0.00000000e+00, 0.00000000e+00, 0.00000000e+00, 0.00000000e+00, 0.00000000e+00, 0.00000000e+00, 0.00000000e+00, 0.00000000e+00, 0.00000000e+00, 0.00000000e+00, 1.02639112e-01, -1.89299608e+00, 3.29909544e+00, 2.51564791e+00, 6.26902627e+00, 1.00222738e+00, 0.00000000e+00, 0.0000000000, 1.0000000000, 0.0004589319
          35, 0.00000000e+00, 0.00000000e+00, 0.00000000e+00, 0.00000000e+00, 0.00000000e+00, 0.00000000e+00, 0.00000000e+00, 0.00000000e+00, 0.00000000e+00, 0.00000000e+00, 0.00000000e+00, 0.00000000e+00, 5.12295463e-02, -1.94440565e+00, 3.23853963e+00, 2.49947285e+00, 6.21097727e+00, 9.41539181e-01, 0.00000000e+00, 0.0000000000, 1.0000000000, 0.0004718979
          36, 0.00000000e+00, 0.00000000e+00, 0.00000000e+00, 0.00000000e+00, 0.00000000e+00, 0.00000000e+00, 0.00000000e+00, 0.00000000e+00, 0.00000000e+00, 0.00000000e+00, 0.00000000e+00, 0.00000000e+00, 2.12954199e-04, -1.99542224e+00, 3.17774250e+00, 2.48327345e+00, 6.15346897e+00, 8.83411339e-01, 0.00000000e+00, 0.0000000000, 1.0000000000, 0.0004848321
          37, 0.00000000e+00, 0.00000000e+00, 0.00000000e+00, 0.00000000e+00, 0.00000000e+00, 0.00000000e+00, 0.00000000e+00, 0.00000000e+00, 0.00000000e+00, 0.00000000e+00, 0.00000000e+00, 0.00000000e+00, -5.02867966e-02, -2.04592199e+00, 3.11679831e+00, 2.46697167e+00, 6.09662233e+00, 8.28287299e-01, 0.00000000e+00, 0.0000000000, 1.0000000000, 0.0004977465
          38, 0.00000000e+00, 0.00000000e+00, 0.00000000e+00, 0.00000000e+00, 0.00000000e+00, 0.00000000e+00, 0.00000000e+00, 0.00000000e+00, 0.00000000e+00, 0.00000000e+00, 0.00000000e+00, 0.00000000e+00, -1.00150263e-01, -2.09578546e+00, 3.05580577e+00, 2.45050276e+00, 6.04055449e+00, 7.76790837e-01, 0.00000000e+00, 0.0000000000, 1.0000000000, 0.0005106648
          39, 0.00000000e+00, 0.00000000e+00, 0.00000000e+00, 0.00000000e+00, 0.00000000e+00, 0.00000000e+00, 0.00000000e+00, 0.00000000e+00, 0.00000000e+00, 0.00000000e+00, 0.00000000e+00, 0.00000000e+00, -1.49264000e-01, -2.14489920e+00, 2.99486865e+00, 2.43381101e+00, 5.98537796e+00, 7.29788143e-01, 0.00000000e+00, 0.0000000000, 1.0000000000, 0.0005237500
          40, 0.00000000e+00, 0.00000000e+00, 0.00000000e+00, 0.00000000e+00, 0.00000000e+00, 0.00000000e+00, 0.00000000e+00, 0.00000000e+00, 0.00000000e+00, 0.00000000e+00, 0.00000000e+00, 0.00000000e+00, -1.97522374e-01, -2.19315757e+00, 2.93409598e+00, 2.41684761e+00, 5.93119937e+00, 6.88331330e-01, 0.00000000e+00, 0.0000000000, 1.0000000000, 0.0005366961
          41, 0.00000000e+00, 0.00000000e+00, 0.00000000e+00, 0.00000000e+00, 0.00000000e+00, 0.00000000e+00, 0.00000000e+00, 0.00000000e+00, 0.00000000e+00, 0.00000000e+00, 0.00000000e+00, 0.00000000e+00, -2.44829480e-01, -2.24046467e+00, 2.87360180e+00, 2.39956981e+00, 5.87811794e+00, 6.53445230e-01, 0.00000000e+00, 0.0000000000, 1.0000000000, 0.0005499999
          42, 0.00000000e+00, 0.00000000e+00, 0.00000000e+00, 0.00000000e+00, 0.00000000e+00, 0.00000000e+00, 0.00000000e+00, 0.00000000e+00, 0.00000000e+00, 0.00000000e+00, 0.00000000e+00, 0.00000000e+00, -2.91101049e-01, -2.28673624e+00, 2.81350461e+00, 2.38194054e+00, 5.82622372e+00, 6.25799905e-01, 0.00000000e+00, 0.0000000000, 1.0000000000, 0.0005629301
          43, 0.00000000e+00, 0.00000000e+00, 0.00000000e+00, 0.00000000e+00, 0.00000000e+00, 0.00000000e+00, 0.00000000e+00, 0.00000000e+00, 0.00000000e+00, 0.00000000e+00, 0.00000000e+00, 0.00000000e+00, -3.36266196e-01, -2.33190139e+00, 2.75392633e+00, 2.36392847e+00, 5.77559570e+00, 6.05413785e-01, 0.00000000e+00, 0.0000000000, 1.0000000000, 0.0005761147
          44, 0.00000000e+00, 0.00000000e+00, 0.00000000e+00, 0.00000000e+00, 0.00000000e+00, 0.00000000e+00, 0.00000000e+00, 0.00000000e+00, 0.00000000e+00, 0.00000000e+00, 0.00000000e+00, 0.00000000e+00, -3.80268887e-01, -2.37590408e+00, 2.69499099e+00, 2.34550789e+00, 5.72630006e+00, 5.91559493e-01, 0.00000000e+00, 0.0000000000, 1.0000000000, 0.0005892992
          45, 0.00000000e+00, 0.00000000e+00, 0.00000000e+00, 0.00000000e+00, 0.00000000e+00, 0.00000000e+00, 0.00000000e+00, 0.00000000e+00, 0.00000000e+00, 0.00000000e+00, 0.00000000e+00, 0.00000000e+00, -4.23069021e-01, -2.41870422e+00, 2.63682290e+00, 2.32665868e+00, 5.67838855e+00, 5.82931152e-01, 0.00000000e+00, 0.0000000000, 1.0000000000, 0.0006023328
          46, 0.00000000e+00, 0.00000000e+00, 0.00000000e+00, 0.00000000e+00, 0.00000000e+00, 0.00000000e+00, 0.00000000e+00, 0.00000000e+00, 0.00000000e+00, 0.00000000e+00, 0.00000000e+00, 0.00000000e+00, -4.64643047e-01, -2.46027824e+00, 2.57954459e+00, 2.30736603e+00, 5.63189724e+00, 5.77966931e-01, 0.00000000e+00, 0.0000000000, 1.0000000000, 0.0006152471
          47, 0.00000000e+00, 0.00000000e+00, 0.00000000e+00, 0.00000000e+00, 0.00000000e+00, 0.00000000e+00, 0.00000000e+00, 0.00000000e+00, 0.00000000e+00, 0.00000000e+00, 0.00000000e+00, 0.00000000e+00, -5.04984052e-01, -2.50061925e+00, 2.52327448e+00, 2.28762013e+00, 5.58684570e+00, 5.75157711e-01, 0.00000000e+00, 0.0000000000, 1.0000000000, 0.0006281495
          48, 0.00000000e+00, 0.00000000e+00, 0.00000000e+00, 0.00000000e+00, 0.00000000e+00, 0.00000000e+00, 0.00000000e+00, 0.00000000e+00, 0.00000000e+00, 0.00000000e+00, 0.00000000e+00, 0.00000000e+00, -5.44101330e-01, -2.53973653e+00, 2.46812431e+00, 2.26741576e+00, 5.54323669e+00, 5.73238020e-01, 0.00000000e+00, 0.0000000000, 1.0000000000, 0.0006410480
          49, 0.00000000e+00, 0.00000000e+00, 0.00000000e+00, 0.00000000e+00, 0.00000000e+00, 0.00000000e+00, 0.00000000e+00, 0.00000000e+00, 0.00000000e+00, 0.00000000e+00, 0.00000000e+00, 0.00000000e+00, -5.82019435e-01, -2.57765463e+00, 2.41419655e+00, 2.24675178e+00, 5.50105636e+00, 5.71251426e-01, 0.00000000e+00, 0.0000000000, 1.0000000000, 0.0006540497
          50, 0.00000000e+00, 0.00000000e+00, 0.00000000e+00, 0.00000000e+00, 0.00000000e+00, 0.00000000e+00, 0.00000000e+00, 0.00000000e+00, 0.00000000e+00, 0.00000000e+00, 0.00000000e+00, 0.00000000e+00, -6.18776791e-01, -2.61441199e+00, 2.36158183e+00, 2.22563060e+00, 5.46027505e+00, 5.68533381e-01, 0.00000000e+00, 0.0000000000, 1.0000000000, 0.0006669641
          51, 0.00000000e+00, 0.00000000e+00, 0.00000000e+00, 0.00000000e+00, 0.00000000e+00, 0.00000000e+00, 0.00000000e+00, 0.00000000e+00, 0.00000000e+00, 0.00000000e+00, 0.00000000e+00, 0.00000000e+00, -6.54423942e-01, -2.65005914e+00, 2.31035663e+00, 2.20405772e+00, 5.42084855e+00, 5.64657693e-01, 0.00000000e+00, 0.0000000000, 1.0000000000, 0.0006748994
          52, 0.00000000e+00, 0.00000000e+00, 0.00000000e+00, 0.00000000e+00, 0.00000000e+00, 0.00000000e+00, 0.00000000e+00, 0.00000000e+00, 0.00000000e+00, 0.00000000e+00, 0.00000000e+00, 0.00000000e+00, -6.89021545e-01, -2.68465674e+00, 2.26058128e+00, 2.18204113e+00, 5.38271980e+00, 5.59376621e-01, 0.00000000e+00, 0.0000000000, 1.0000000000, 0.0006831487
          53, 0.00000000e+00, 0.00000000e+00, 0.00000000e+00, 0.00000000e+00, 0.00000000e+00, 0.00000000e+00, 0.00000000e+00, 0.00000000e+00, 0.00000000e+00, 0.00000000e+00, 0.00000000e+00, 0.00000000e+00, -7.22638221e-01, -2.71827342e+00, 2.21229845e+00, 2.15959094e+00, 5.34582089e+00, 5.52568487e-01, 0.00000000e+00, 0.0000000000, 1.0000000000, 0.0006909490
          54, 0.00000000e+00, 0.00000000e+00, 0.00000000e+00, 0.00000000e+00, 0.00000000e+00, 0.00000000e+00, 0.00000000e+00, 0.00000000e+00, 0.00000000e+00, 0.00000000e+00, 0.00000000e+00, 0.00000000e+00, -7.55348379e-01, -2.75098357e+00, 2.16553221e+00, 2.13671884e+00, 5.31007524e+00, 5.44196868e-01, 0.00000000e+00, 0.0000000000, 1.0000000000, 0.0006985148
          55, 0.00000000e+00, 0.00000000e+00, 0.00000000e+00, 0.00000000e+00, 0.00000000e+00, 0.00000000e+00, 0.00000000e+00, 0.00000000e+00, 0.00000000e+00, 0.00000000e+00, 0.00000000e+00, 0.00000000e+00, -7.87230100e-01, -2.78286529e+00, 2.12028773e+00, 2.11343780e+00, 5.27539994e+00, 5.34280769e-01, 0.00000000e+00, 0.0000000000, 1.0000000000, 0.0007062316
          56, 0.00000000e+00, 0.00000000e+00, 0.00000000e+00, 0.00000000e+00, 0.00000000e+00, 0.00000000e+00, 0.00000000e+00, 0.00000000e+00, 0.00000000e+00, 0.00000000e+00, 0.00000000e+00, 0.00000000e+00, -8.18363188e-01, -2.81399838e+00, 2.07655171e+00, 2.08976165e+00, 5.24170790e+00, 5.22873682e-01, 0.00000000e+00, 0.0000000000, 1.0000000000, 0.0007138133
          57, 0.00000000e+00, 0.00000000e+00, 0.00000000e+00, 0.00000000e+00, 0.00000000e+00, 0.00000000e+00, 0.00000000e+00, 0.00000000e+00, 0.00000000e+00, 0.00000000e+00, 0.00000000e+00, 0.00000000e+00, -8.48827416e-01, -2.84446261e+00, 2.03429330e+00, 2.06570483e+00, 5.20891005e+00, 5.10049258e-01, 0.00000000e+00, 0.0000000000, 1.0000000000, 0.0007214308
          58, 0.00000000e+00, 0.00000000e+00, 0.00000000e+00, 0.00000000e+00, 0.00000000e+00, 0.00000000e+00, 0.00000000e+00, 0.00000000e+00, 0.00000000e+00, 0.00000000e+00, 0.00000000e+00, 0.00000000e+00, -8.78701042e-01, -2.87433624e+00, 1.99346573e+00, 2.04128213e+00, 5.17691714e+00, 4.95891697e-01, 0.00000000e+00, 0.0000000000, 1.0000000000, 0.0007289489
          59, 0.00000000e+00, 0.00000000e+00, 0.00000000e+00, 0.00000000e+00, 0.00000000e+00, 0.00000000e+00, 0.00000000e+00, 0.00000000e+00, 0.00000000e+00, 0.00000000e+00, 0.00000000e+00, 0.00000000e+00, -9.08059585e-01, -2.90369478e+00, 1.95400831e+00, 2.01650845e+00, 5.14564148e+00, 4.80489426e-01, 0.00000000e+00, 0.0000000000, 1.0000000000, 0.0007364472
          60, 0.00000000e+00, 0.00000000e+00, 0.00000000e+00, 0.00000000e+00, 0.00000000e+00, 0.00000000e+00, 0.00000000e+00, 0.00000000e+00, 0.00000000e+00, 0.00000000e+00, 0.00000000e+00, 0.00000000e+00, -9.36974874e-01, -2.93261007e+00, 1.91584872e+00, 1.99139868e+00, 5.11499821e+00, 4.63931020e-01, 0.00000000e+00, 0.0000000000, 1.0000000000, 0.0007439812
          61, 0.00000000e+00, 0.00000000e+00, 0.00000000e+00, 0.00000000e+00, 0.00000000e+00, 0.00000000e+00, 0.00000000e+00, 0.00000000e+00, 0.00000000e+00, 0.00000000e+00, 0.00000000e+00, 0.00000000e+00, -9.65514355e-01, -2.96114955e+00, 1.87890559e+00, 1.96596748e+00, 5.08490644e+00, 4.46302643e-01, 0.00000000e+00, 0.0000000000, 1.0000000000, 0.0007514993
          62, 0.00000000e+00, 0.00000000e+00, 0.00000000e+00, 0.00000000e+00, 0.00000000e+00, 0.00000000e+00, 0.00000000e+00, 0.00000000e+00, 0.00000000e+00, 0.00000000e+00, 0.00000000e+00, 0.00000000e+00, -9.93740630e-01, -2.98937582e+00, 1.84309098e+00, 1.94022924e+00, 5.05528998e+00, 4.27686520e-01, 0.00000000e+00, 0.0000000000, 1.0000000000, 0.0007589976
          63, 0.00000000e+00, 0.00000000e+00, 0.00000000e+00, 0.00000000e+00, 0.00000000e+00, 0.00000000e+00, 0.00000000e+00, 0.00000000e+00, 0.00000000e+00, 0.00000000e+00, 0.00000000e+00, 0.00000000e+00, -1.02171120e+00, -3.01734639e+00, 1.80831290e+00, 1.91419798e+00, 5.02607791e+00, 4.08160079e-01, 0.00000000e+00, 0.0000000000, 1.0000000000, 0.0007664998
          64, 0.00000000e+00, 0.00000000e+00, 0.00000000e+00, 0.00000000e+00, 0.00000000e+00, 0.00000000e+00, 0.00000000e+00, 0.00000000e+00, 0.00000000e+00, 0.00000000e+00, 0.00000000e+00, 0.00000000e+00, -1.04947836e+00, -3.04511355e+00, 1.77447751e+00, 1.88788724e+00, 4.99720489e+00, 3.87795550e-01, 0.00000000e+00, 0.0000000000, 1.0000000000, 0.0007740815
          65, 0.00000000e+00, 0.00000000e+00, 0.00000000e+00, 0.00000000e+00, 0.00000000e+00, 0.00000000e+00, 0.00000000e+00, 0.00000000e+00, 0.00000000e+00, 0.00000000e+00, 0.00000000e+00, 0.00000000e+00, -1.07708927e+00, -3.07272447e+00, 1.74149123e+00, 1.86131010e+00, 4.96861128e+00, 3.66659862e-01, 0.00000000e+00, 0.0000000000, 1.0000000000, 0.0007816156
          66, 0.00000000e+00, 0.00000000e+00, 0.00000000e+00, 0.00000000e+00, 0.00000000e+00, 0.00000000e+00, 0.00000000e+00, 0.00000000e+00, 0.00000000e+00, 0.00000000e+00, 0.00000000e+00, 0.00000000e+00, -1.10458610e+00, -3.10022129e+00, 1.70926238e+00, 1.83447909e+00, 4.94024309e+00, 3.44814720e-01, 0.00000000e+00, 0.0000000000, 1.0000000000, 0.0007891138
          67, 0.00000000e+00, 0.00000000e+00, 0.00000000e+00, 0.00000000e+00, 0.00000000e+00, 0.00000000e+00, 0.00000000e+00, 0.00000000e+00, 0.00000000e+00, 0.00000000e+00, 0.00000000e+00, 0.00000000e+00, -1.13200623e+00, -3.12764142e+00, 1.67770260e+00, 1.80740622e+00, 4.91205187e+00, 3.22316803e-01, 0.00000000e+00, 0.0000000000, 1.0000000000, 0.0007966161
          68, 0.00000000e+00, 0.00000000e+00, 0.00000000e+00, 0.00000000e+00, 0.00000000e+00, 0.00000000e+00, 0.00000000e+00, 0.00000000e+00, 0.00000000e+00, 0.00000000e+00, 0.00000000e+00, 0.00000000e+00, -1.15938257e+00, -3.15501777e+00, 1.64672793e+00, 1.78010293e+00, 4.88399442e+00, 2.99218028e-01, 0.00000000e+00, 0.0000000000, 1.0000000000, 0.0008041819
          69, 0.00000000e+00, 0.00000000e+00, 0.00000000e+00, 0.00000000e+00, 0.00000000e+00, 0.00000000e+00, 0.00000000e+00, 0.00000000e+00, 0.00000000e+00, 0.00000000e+00, 0.00000000e+00, 0.00000000e+00, -1.18674388e+00, -3.18237907e+00, 1.61625957e+00, 1.75258014e+00, 4.85603254e+00, 2.75565856e-01, 0.00000000e+00, 0.0000000000, 1.0000000000, 0.0008121490
          70, 0.00000000e+00, 0.00000000e+00, 0.00000000e+00, 0.00000000e+00, 0.00000000e+00, 0.00000000e+00, 0.00000000e+00, 0.00000000e+00, 0.00000000e+00, 0.00000000e+00, 0.00000000e+00, 0.00000000e+00, -1.21411506e+00, -3.20975026e+00, 1.58622437e+00, 1.72484819e+00, 4.82813266e+00, 2.51403605e-01, 0.00000000e+00, 0.0000000000, 1.0000000000, 0.0008197467
          71, 0.00000000e+00, 0.00000000e+00, 0.00000000e+00, 0.00000000e+00, 0.00000000e+00, 0.00000000e+00, 0.00000000e+00, 0.00000000e+00, 0.00000000e+00, 0.00000000e+00, 0.00000000e+00, 0.00000000e+00, -1.24151754e+00, -3.23715273e+00, 1.55655513e+00, 1.69691694e+00, 4.80026547e+00, 2.26770773e-01, 0.00000000e+00, 0.0000000000, 1.0000000000, 0.0008272648
          72, 0.00000000e+00, 0.00000000e+00, 0.00000000e+00, 0.00000000e+00, 0.00000000e+00, 0.00000000e+00, 0.00000000e+00, 0.00000000e+00, 0.00000000e+00, 0.00000000e+00, 0.00000000e+00, 0.00000000e+00, -1.26896957e+00, -3.26460477e+00, 1.52719065e+00, 1.66879568e+00, 4.77240558e+00, 2.01703340e-01, 0.00000000e+00, 0.0000000000, 1.0000000000, 0.0008347631
          73, 0.00000000e+00, 0.00000000e+00, 0.00000000e+00, 0.00000000e+00, 0.00000000e+00, 0.00000000e+00, 0.00000000e+00, 0.00000000e+00, 0.00000000e+00, 0.00000000e+00, 0.00000000e+00, 0.00000000e+00, -1.29648658e+00, -3.29212178e+00, 1.49807565e+00, 1.64049324e+00, 4.74453114e+00, 1.76234075e-01, 0.00000000e+00, 0.0000000000, 1.0000000000, 0.0008423646
          74, 0.00000000e+00, 0.00000000e+00, 0.00000000e+00, 0.00000000e+00, 0.00000000e+00, 0.00000000e+00, 0.00000000e+00, 0.00000000e+00, 0.00000000e+00, 0.00000000e+00, 0.00000000e+00, 0.00000000e+00, -1.32408147e+00, -3.31971666e+00, 1.46916059e+00, 1.61201798e+00, 4.71662346e+00, 1.50392806e-01, 0.00000000e+00, 0.0000000000, 1.0000000000, 0.0008499146
          75, 0.00000000e+00, 0.00000000e+00, 0.00000000e+00, 0.00000000e+00, 0.00000000e+00, 0.00000000e+00, 0.00000000e+00, 0.00000000e+00, 0.00000000e+00, 0.00000000e+00, 0.00000000e+00, 0.00000000e+00, -1.35176487e+00, -3.34740007e+00, 1.44040139e+00, 1.58337778e+00, 4.68866674e+00, 1.24206689e-01, 0.00000000e+00, 0.0000000000, 1.0000000000, 0.0008574128
          76, 0.00000000e+00, 0.00000000e+00, 0.00000000e+00, 0.00000000e+00, 0.00000000e+00, 0.00000000e+00, 0.00000000e+00, 0.00000000e+00, 0.00000000e+00, 0.00000000e+00, 0.00000000e+00, 0.00000000e+00, -1.37954546e+00, -3.37518065e+00, 1.41175907e+00, 1.55458011e+00, 4.66064769e+00, 9.77004457e-02, 0.00000000e+00, 0.0000000000, 1.0000000000, 0.0008653323
          77, 0.00000000e+00, 0.00000000e+00, 0.00000000e+00, 0.00000000e+00, 0.00000000e+00, 0.00000000e+00, 0.00000000e+00, 0.00000000e+00, 0.00000000e+00, 0.00000000e+00, 0.00000000e+00, 0.00000000e+00, -1.40743014e+00, -3.40306533e+00, 1.38319939e+00, 1.52563202e+00, 4.63255527e+00, 7.08965893e-02, 0.00000000e+00, 0.0000000000, 1.0000000000, 0.0008731484
          78, 0.00000000e+00, 0.00000000e+00, 0.00000000e+00, 0.00000000e+00, 0.00000000e+00, 0.00000000e+00, 0.00000000e+00, 0.00000000e+00, 0.00000000e+00, 0.00000000e+00, 0.00000000e+00, 0.00000000e+00, -1.43542432e+00, -3.43105952e+00, 1.35469249e+00, 1.49654018e+00, 4.60438044e+00, 4.38156297e-02, 0.00000000e+00, 0.0000000000, 1.0000000000, 0.0008807182
          79, 0.00000000e+00, 0.00000000e+00, 0.00000000e+00, 0.00000000e+00, 0.00000000e+00, 0.00000000e+00, 0.00000000e+00, 0.00000000e+00, 0.00000000e+00, 0.00000000e+00, 0.00000000e+00, 0.00000000e+00, -1.46353208e+00, -3.45916728e+00, 1.32621246e+00, 1.46731089e+00, 4.57611586e+00, 1.64762607e-02, 0.00000000e+00, 0.0000000000, 1.0000000000, 0.0008883317
          80, 0.00000000e+00, 0.00000000e+00, 0.00000000e+00, 0.00000000e+00, 0.00000000e+00, 0.00000000e+00, 0.00000000e+00, 0.00000000e+00, 0.00000000e+00, 0.00000000e+00, 0.00000000e+00, 0.00000000e+00, -1.49175634e+00, -3.48739154e+00, 1.29773695e+00, 1.43795010e+00, 4.54775573e+00, -1.11044678e-02, 0.00000000e+00, 0.0000000000, 1.0000000000, 0.0008959651
          81, 0.00000000e+00, 0.00000000e+00, 0.00000000e+00, 0.00000000e+00, 0.00000000e+00, 0.00000000e+00, 0.00000000e+00, 0.00000000e+00, 0.00000000e+00, 0.00000000e+00, 0.00000000e+00, 0.00000000e+00, -1.52009905e+00, -3.51573425e+00, 1.26924687e+00, 1.40846347e+00, 4.51929557e+00, -3.89109942e-02, 0.00000000e+00, 0.0000000000, 1.0000000000, 0.0009039164