TITLE = "SU2 Simulation"
VARIABLES = "Iteration","TotalPressureLoss_1","KineticEnergyLoss_1","EntropyGen_1","EulerianWork_1","PressureRatio_1","FlowAngleIn_1","FlowAngleOut_1","AbsFlowAngleIn_1","AbsFlowAngleOut_1","MassFlowIn_1","MassFlowOut_1","MachIn_1","MachOut_1","TotalEfficiency_1","TotalStaticEfficiency_1","Res_Flow[0]","Res_Flow[1]","Res_Flow[2]","Res_Flow[3]","Res_Flow[4]","Res_Turb[0]","Res_Turb[1]","Linear_Solver_Iterations","CFL_Number","Time(min)"
ZONE T= "Convergence history"
           0, 0.0500298600, 0.0369565497, 0.0000295142, -1.1225091382, 0.9824255930, -0.0002434196, -74.8649088031, -0.0002434196, -74.8649088031, 1651.1107046519, 1650.9864870565, 0.1711305515, 0.9967558792, 0.0000000000, 0.0000000000, -7.35200770e+00, -6.78887284e+00, -6.44437365e+00, -1.38634947e+00, 0.00000000e+00, -6.6300778501, -0.3882291463, 5.0000000000, 40.0000000000, 0.0012872639
           1, 0.0500298597, 0.0369565086, 0.0000295141, -1.1215717513, 0.9824255931, -0.0002434194, -74.8649088088, -0.0002434194, -74.8649088088, 1651.1107013025, 1650.9864876473, 0.1711305512, 0.9967558797, 0.0000000000, 0.0000000000, -7.35316214e+00, -6.69662839e+00, -6.47086635e+00, -1.38783151e+00, 0.00000000e+00, -6.6261599870, -0.6289114301, 5.0000000000, 40.0000000000, 0.0027169914
           2, 0.0500298597, 0.0369564672, 0.0000295140, -1.1206688525, 0.9824255931, -0.0002434193, -74.8649088133, -0.0002434193, -74.8649088133, 1651.1106979219, 1650.9864883080, 0.1711305508, 0.9967558802, 0.0000000000, 0.0000000000, -7.35320652e+00, -6.64645333e+00, -6.48910933e+00, -1.38779423e+00, 0.00000000e+00, -6.6243094427, -0.6868180884, 5.0000000000, 40.0000000000, 0.0041111794
           3, 0.0500298594, 0.0369564300, 0.0000295139, -1.1198049111, 0.9824255932, -0.0002434193, -74.8649088177, -0.0002434193, -74.8649088177, 1651.1106945166, 1650.9864889308, 0.1711305505, 0.9967558806, 0.0000000000, 0.0000000000, -7.35269905e+00, -6.63485195e+00, -6.49232323e+00, -1.38701786e+00, 0.00000000e+00, -6.6241248713, -0.7112758213, 5.0000000000, 40.0000000000, 0.0055074638
           4, 0.0500298593, 0.0369563926, 0.0000295137, -1.1189768917, 0.9824255933, -0.0002434193, -74.8649088229, -0.0002434193, -74.8649088229, 1651.1106911374, 1650.9864893912, 0.1711305501, 0.9967558811, 0.0000000000, 0.0000000000, -7.35216436e+00, -6.63862461e+00, -6.48783659e+00, -1.38621748e+00, 0.00000000e+00, -6.6246598025, -0.6859271453, 5.0000000000, 40.0000000000, 0.0069030622
           5, 0.0500298591, 0.0369563576, 0.0000295136, -1.1181728689, 0.9824255933, -0.0002434194, -74.8649088300, -0.0002434194, -74.8649088300, 1651.1106878736, 1650.9864895992, 0.1711305498, 0.9967558815, 0.0000000000, 0.0000000000, -7.35186908e+00, -6.64558176e+00, -6.48102811e+00, -1.38573956e+00, 0.00000000e+00, -6.6254494569, -0.6445413885, 5.0000000000, 40.0000000000, 0.0083000691
           6, 0.0500298590, 0.0369563217, 0.0000295135, -1.1173802349, 0.9824255933, -0.0002434197, -74.8649088393, -0.0002434197, -74.8649088393, 1651.1106848441, 1650.9864895433, 0.1711305495, 0.9967558819, 0.0000000000, 0.0000000000, -7.35182526e+00, -6.65060028e+00, -6.47620235e+00, -1.38559467e+00, 0.00000000e+00, -6.6262532326, -0.6208230285, 5.0000000000, 40.0000000000, 0.0096963127
           7, 0.0500298590, 0.0369562859, 0.0000295134, -1.1165912186, 0.9824255934, -0.0002434202, -74.8649088505, -0.0002434202, -74.8649088505, 1651.1106822014, 1650.9864892937, 0.1711305492, 0.9967558823, 0.0000000000, 0.0000000000, -7.35195036e+00, -6.65358515e+00, -6.47544434e+00, -1.38567745e+00, 0.00000000e+00, -6.6268840249, -0.6113571262, 5.0000000000, 40.0000000000, 0.0110929884
           8, 0.0500298589, 0.0369562501, 0.0000295134, -1.1158025900, 0.9824255934, -0.0002434208, -74.8649088626, -0.0002434208, -74.8649088626, 1651.1106800825, 1650.9864889526, 0.1711305490, 0.9967558826, 0.0000000000, 0.0000000000, -7.35215064e+00, -6.65487486e+00, -6.47735781e+00, -1.38586318e+00, 0.00000000e+00, -6.6272119064, -0.6090557070, 5.0000000000, 40.0000000000, 0.0124896609
           9, 0.0500298588, 0.0369562141, 0.0000295133, -1.1150131528, 0.9824255934, -0.0002434214, -74.8649088748, -0.0002434214, -74.8649088748, 1651.1106786011, 1650.9864886052, 0.1711305488, 0.9967558830, 0.0000000000, 0.0000000000, -7.35237507e+00, -6.65530732e+00, -6.47880265e+00, -1.38607854e+00, 0.00000000e+00, -6.6272325196, -0.6093153741, 5.0000000000, 40.0000000000, 0.0138856249
          10, 0.0500298587, 0.0369561780, 0.0000295132, -1.1142225589, 0.9824255935, -0.0002434220, -74.8649088867, -0.0002434220, -74.8649088867, 1651.1106778090, 1650.9864883028, 0.1711305487, 0.9967558834, 0.0000000000, 0.0000000000, -7.35261321e+00, -6.65567525e+00, -6.47942842e+00, -1.38631024e+00, 0.00000000e+00, -6.6270374398, -0.6100617598, 5.0000000000, 40.0000000000, 0.0152820935
          11, 0.0500298584, 0.0369561440, 0.0000295131, -1.1134312032, 0.9824255936, -0.0002434224, -74.8649088980, -0.0002434224, -74.8649088980, 1651.1106776824, 1650.9864880681, 0.1711305487, 0.9967558838, 0.0000000000, 0.0000000000, -7.35286566e+00, -6.65618576e+00, -6.47979019e+00, -1.38656087e+00, 0.00000000e+00, -6.6267410814, -0.6109087740, 5.0000000000, 40.0000000000, 0.0166791394
          12, 0.0500298583, 0.0369561078, 0.0000295130, -1.1126402414, 0.9824255936, -0.0002434227, -74.8649089086, -0.0002434227, -74.8649089086, 1651.1106781141, 1650.9864878985, 0.1711305488, 0.9967558842, 0.0000000000, 0.0000000000, -7.35313014e+00, -6.65654544e+00, -6.48017195e+00, -1.38682802e+00, 0.00000000e+00, -6.6264312254, -0.6118451020, 5.0000000000, 40.0000000000, 0.0180749430
          13, 0.0500298582, 0.0369549427, 0.0000295129, -1.1118511565, 0.9824255936, -0.0002434226, -74.8649089189, -0.0002434226, -74.8649089189, 1651.1106789184, 1650.9864877667, 0.1711305489, 0.9967558846, 0.0000000000, 0.0000000000, -7.35340296e+00, -6.65665212e+00, -6.48051906e+00, -1.38710647e+00, 0.00000000e+00, -6.6261642077, -0.6126769776, 5.0000000000, 40.0000000000, 0.0194710299
          14, 0.0500298581, 0.0369549072, 0.0000295128, -1.1110652809, 0.9824255937, -0.0002434220, -74.8649089291, -0.0002434220, -74.8649089291, 1651.1106798464, 1650.9864876261, 0.1711305490, 0.9967558850, 0.0000000000, 0.0000000000, -7.35368113e+00, -6.65672518e+00, -6.48081535e+00, -1.38739194e+00, 0.00000000e+00, -6.6259850223, -0.6131213555, 5.0000000000, 40.0000000000, 0.0208664590
          15, 0.0500298580, 0.0369548722, 0.0000295127, -1.1102833753, 0.9824255937, -0.0002434210, -74.8649089397, -0.0002434210, -74.8649089397, 1651.1106806488, 1650.9864874255, 0.1711305490, 0.9967558854, 0.0000000000, 0.0000000000, -7.35396304e+00, -6.65708833e+00, -6.48108045e+00, -1.38768224e+00, 0.00000000e+00, -6.6259402041, -0.6130204526, 5.0000000000, 40.0000000000, 0.0222627851
          16, 0.0500298579, 0.0369548376, 0.0000295126, -1.1095054338, 0.9824255937, -0.0002434197, -74.8649089512, -0.0002434197, -74.8649089512, 1651.1106811025, 1650.9864871266, 0.1711305491, 0.9967558858, 0.0000000000, 0.0000000000, -7.35424663e+00, -6.65787981e+00, -6.48137782e+00, -1.38797476e+00, 0.00000000e+00, -6.6260727669, -0.6125019519, 5.0000000000, 40.0000000000, 0.0236590169
          17, 0.0500298581, 0.0369548012, 0.0000295125, -1.1087305769, 0.9824255937, -0.0002434182, -74.8649089636, -0.0002434182, -74.8649089636, 1651.1106810676, 1650.9864867189, 0.1711305491, 0.9967558861, 0.0000000000, 0.0000000000, -7.35452787e+00, -6.65892091e+00, -6.48175666e+00, -1.38826436e+00, 0.00000000e+00, -6.6264100027, -0.6119748204, 5.0000000000, 40.0000000000, 0.0250559360
          18, 0.0500298579, 0.0369536378, 0.0000295124, -1.1079571885, 0.9824255937, -0.0002434169, -74.8649089767, -0.0002434169, -74.8649089767, 1651.1106804992, 1650.9864862271, 0.1711305490, 0.9967558865, 0.0000000000, 0.0000000000, -7.35480112e+00, -6.65986059e+00, -6.48223590e+00, -1.38854382e+00, 0.00000000e+00, -6.6269539851, -0.6119134646, 5.0000000000, 40.0000000000, 0.0264098548
          19, 0.0500298578, 0.0369536034, 0.0000295123, -1.1071830641, 0.9824255938, -0.0002434159, -74.8649089902, -0.0002434159, -74.8649089902, 1651.1106794431, 1650.9864857095, 0.1711305489, 0.9967558869, 0.0000000000, 0.0000000000, -7.35506062e+00, -6.66043161e+00, -6.48277882e+00, -1.38880573e+00, 0.00000000e+00, -6.6276779414, -0.6125948075, 5.0000000000, 40.0000000000, 0.0277623511
          20, 0.0500298579, 0.0369535665, 0.0000295122, -1.1064057748, 0.9824255937, -0.0002434153, -74.8649090032, -0.0002434153, -74.8649090032, 1651.1106779964, 1650.9864852496, 0.1711305487, 0.9967558873, 0.0000000000, 0.0000000000, -7.35530221e+00, -6.66058789e+00, -6.48330289e+00, -1.38904459e+00, 0.00000000e+00, -6.6285289126, -0.6139692220, 5.0000000000, 40.0000000000, 0.0291159018
