TITLE = "Visualization of the volumetric solution"
VARIABLES = "x","y","Density","Momentum_x","Momentum_y","Energy","Pressure","Temperature","Mach","C<sub>p</sub>"
ZONE NODES= 2350, ELEMENTS= 2232, DATAPACKING=POINT, ZONETYPE=FEQUADRILATERAL
0.000000e+00	0.000000e+00	1.348446e+00	2.327050e+03	1.302227e+01	2.315581e+06	1.230365e+05	3.178563e+02	4.828528e+00	1.224433e-02	
-5.000000e-02	0.000000e+00	1.176591e+00	2.042703e+03	-4.258258e-15	2.026500e+06	1.013250e+05	3.000000e+02	5.000000e+00	8.206642e-18	
9.848077e-01	1.736484e-01	2.464784e+00	4.068413e+03	6.976919e+02	4.179828e+06	2.893549e+05	4.089615e+02	4.130952e+00	1.060406e-01	
9.848077e-01	5.209451e-01	1.176591e+00	2.042703e+03	2.396124e-13	2.026500e+06	1.013250e+05	3.000000e+02	5.000000e+00	2.626125e-16	
0.000000e+00	1.000000e-01	1.176591e+00	2.042703e+03	1.733913e-13	2.026500e+06	1.013250e+05	3.000000e+02	5.000000e+00	2.461993e-17	
-5.000000e-02	1.000000e-01	1.176591e+00	2.042703e+03	7.471819e-15	2.026500e+06	1.013250e+05	3.000000e+02	5.000000e+00	-1.148930e-16	
-4.326176e-02	0.000000e+00	1.176591e+00	2.042703e+03	-1.799829e-14	2.026500e+06	1.013250e+05	3.000000e+02	5.000000e+00	-4.923985e-17	
-3.739950e-02	0.000000e+00	1.176591e+00	2.042703e+03	-2.995212e-14	2.026500e+06	1.013250e+05	3.000000e+02	5.000000e+00	2.461993e-17	
-3.229933e-02	0.000000e+00	1.176591e+00	2.042703e+03	-1.741089e-14	2.026500e+06	1.013250e+05	3.000000e+02	5.000000e+00	8.206642e-18	
-2.786218e-02	0.000000e+00	1.176591e+00	2.042703e+03	1.455635e-14	2.026500e+06	1.013250e+05	3.000000e+02	5.000000e+00	-4.923985e-17	
-2.400186e-02	0.000000e+00	1.176591e+00	2.042703e+03	4.236784e-14	2.026500e+06	1.013250e+05	3.000000e+02	5.000000e+00	-1.230996e-16	
-2.064338e-02	0.000000e+00	1.176591e+00	2.042703e+03	5.669038e-14	2.026500e+06	1.013250e+05	3.000000e+02	5.000000e+00	-1.230996e-16	
-1.772150e-02	0.000000e+00	1.176591e+00	2.042703e+03	4.559364e-14	2.026500e+06	1.013250e+05	3.000000e+02	5.000000e+00	-8.206642e-18	
-1.517947e-02	0.000000e+00	1.176591e+00	2.042703e+03	3.593947e-14	2.026500e+06	1.013250e+05	3.000000e+02	5.000000e+00	-7.385978e-17	
-1.296790e-02	0.000000e+00	1.176591e+00	2.042703e+03	2.754034e-14	2.026500e+06	1.013250e+05	3.000000e+02	5.000000e+00	-1.230996e-16	
-1.104384e-02	0.000000e+00	1.176591e+00	2.042703e+03	2.023310e-14	2.026500e+06	1.013250e+05	3.000000e+02	5.000000e+00	-7.385978e-17	
-9.369904e-03	0.000000e+00	1.187768e+00	2.061195e+03	8.468842e-01	2.045300e+06	1.027402e+05	3.013279e+02	4.986766e+00	7.981357e-04	
-7.913580e-03	0.000000e+00	1.212741e+00	2.102516e+03	2.739252e+00	2.087309e+06	1.059008e+05	3.042015e+02	4.958404e+00	2.580545e-03	
-6.646578e-03	0.000000e+00	1.234468e+00	2.138465e+03	4.385613e+00	2.123856e+06	1.086485e+05	3.066014e+02	4.935000e+00	4.130136e-03	
-5.544286e-03	0.000000e+00	1.253371e+00	2.169740e+03	5.817946e+00	2.155652e+06	1.110376e+05	3.086178e+02	4.915531e+00	5.477490e-03	
-4.585293e-03	0.000000e+00	1.269816e+00	2.196950e+03	7.064076e+00	2.183315e+06	1.131151e+05	3.103204e+02	4.899229e+00	6.649114e-03	
-3.750968e-03	0.000000e+00	1.284123e+00	2.220623e+03	8.148209e+00	2.207382e+06	1.149218e+05	3.117642e+02	4.885501e+00	7.668011e-03	
-3.025106e-03	0.000000e+00	1.296570e+00	2.241218e+03	9.091405e+00	2.228320e+06	1.164931e+05	3.129929e+02	4.873887e+00	8.554147e-03	
-2.393606e-03	0.000000e+00	1.307399e+00	2.259135e+03	9.911985e+00	2.246536e+06	1.178597e+05	3.140418e+02	4.864022e+00	9.324861e-03	
-1.844200e-03	0.000000e+00	1.316821e+00	2.274724e+03	1.062589e+01	2.262384e+06	1.190484e+05	3.149395e+02	4.855615e+00	9.995217e-03	
-1.366218e-03	0.000000e+00	1.325017e+00	2.288286e+03	1.124699e+01	2.276172e+06	1.200823e+05	3.157096e+02	4.848430e+00	1.057830e-02	
-9.503729e-04	0.000000e+00	1.332148e+00	2.300085e+03	1.178734e+01	2.288167e+06	1.209817e+05	3.163714e+02	4.842274e+00	1.108550e-02	
-5.885879e-04	0.000000e+00	1.338352e+00	2.310350e+03	1.225745e+01	2.298603e+06	1.217640e+05	3.169412e+02	4.836989e+00	1.152669e-02	
-2.738350e-04	0.000000e+00	1.343750e+00	2.319280e+03	1.266645e+01	2.307682e+06	1.224445e+05	3.174324e+02	4.832444e+00	1.191048e-02	
1.373606e-04	2.422041e-05	1.350838e+00	2.330928e+03	1.346916e+01	2.319570e+06	1.233782e+05	3.181745e+02	4.825600e+00	1.243701e-02	
2.884570e-04	5.086281e-05	1.353470e+00	2.335194e+03	1.396074e+01	2.323957e+06	1.237539e+05	3.185229e+02	4.822397e+00	1.264892e-02	
4.546632e-04	8.016949e-05	1.356364e+00	2.339887e+03	1.450147e+01	2.328784e+06	1.241671e+05	3.189045e+02	4.818897e+00	1.288195e-02	
6.374898e-04	1.124068e-04	1.359548e+00	2.345048e+03	1.509628e+01	2.334093e+06	1.246215e+05	3.193219e+02	4.815073e+00	1.313822e-02	
8.385989e-04	1.478678e-04	1.363051e+00	2.350726e+03	1.575057e+01	2.339933e+06	1.251212e+05	3.197785e+02	4.810899e+00	1.342004e-02	
1.059819e-03	1.868749e-04	1.366904e+00	2.356972e+03	1.647029e+01	2.346357e+06	1.256708e+05	3.202776e+02	4.806345e+00	1.372994e-02	
1.303162e-03	2.297828e-04	1.371142e+00	2.363842e+03	1.726198e+01	2.353423e+06	1.262750e+05	3.208229e+02	4.801381e+00	1.407072e-02	
1.570838e-03	2.769815e-04	1.375804e+00	2.371400e+03	1.813284e+01	2.361196e+06	1.269395e+05	3.214182e+02	4.795974e+00	1.444544e-02	
1.865282e-03	3.289000e-04	1.380932e+00	2.379713e+03	1.909079e+01	2.369746e+06	1.276701e+05	3.220676e+02	4.790092e+00	1.485746e-02	
2.189170e-03	3.860102e-04	1.386573e+00	2.388858e+03	2.014453e+01	2.379151e+06	1.284733e+05	3.227755e+02	4.783698e+00	1.531048e-02	
2.545447e-03	4.488315e-04	1.392778e+00	2.398916e+03	2.130364e+01	2.389497e+06	1.293565e+05	3.235466e+02	4.776756e+00	1.580856e-02	
2.937352e-03	5.179350e-04	1.399604e+00	2.409981e+03	2.257867e+01	2.400878e+06	1.303275e+05	3.243856e+02	4.769228e+00	1.635616e-02	
3.368447e-03	5.939489e-04	1.407112e+00	2.422153e+03	2.398119e+01	2.413396e+06	1.313951e+05	3.252975e+02	4.761074e+00	1.695819e-02	
3.842652e-03	6.775640e-04	1.415371e+00	2.435541e+03	2.552397e+01	2.427166e+06	1.325686e+05	3.262878e+02	4.752256e+00	1.762001e-02	
4.364277e-03	7.695407e-04	1.424455e+00	2.450268e+03	2.722103e+01	2.442313e+06	1.338586e+05	3.273617e+02	4.742734e+00	1.834754e-02	
4.938065e-03	8.707151e-04	1.434449e+00	2.466468e+03	2.908780e+01	2.458975e+06	1.352766e+05	3.285248e+02	4.732469e+00	1.914724e-02	
5.569232e-03	9.820070e-04	1.445441e+00	2.484288e+03	3.114124e+01	2.477304e+06	1.368353e+05	3.297828e+02	4.721422e+00	2.002623e-02	
6.263516e-03	1.104428e-03	1.457533e+00	2.503890e+03	3.340002e+01	2.497465e+06	1.385483e+05	3.311412e+02	4.709556e+00	2.099233e-02	
7.027227e-03	1.239091e-03	1.470834e+00	2.525452e+03	3.588469e+01	2.519642e+06	1.404310e+05	3.326057e+02	4.696838e+00	2.205408e-02	
7.867311e-03	1.387221e-03	1.485465e+00	2.549171e+03	3.861782e+01	2.544037e+06	1.425000e+05	3.341817e+02	4.683236e+00	2.322090e-02	
8.791402e-03	1.550163e-03	1.501560e+00	2.575261e+03	4.162426e+01	2.570871e+06	1.447736e+05	3.358745e+02	4.668722e+00	2.450309e-02	
9.807903e-03	1.729400e-03	1.519263e+00	2.603960e+03	4.493135e+01	2.600389e+06	1.472718e+05	3.376889e+02	4.653274e+00	2.591197e-02	
1.092605e-02	1.926560e-03	1.538737e+00	2.635529e+03	4.856915e+01	2.632858e+06	1.500166e+05	3.396294e+02	4.636877e+00	2.745995e-02	
1.215602e-02	2.143437e-03	1.560159e+00	2.670255e+03	5.257073e+01	2.668575e+06	1.530323e+05	3.416997e+02	4.619522e+00	2.916063e-02	
1.350898e-02	2.382001e-03	1.583723e+00	2.708454e+03	5.697246e+01	2.707863e+06	1.563452e+05	3.439028e+02	4.601207e+00	3.102897e-02	
1.499724e-02	2.644421e-03	1.609643e+00	2.750473e+03	6.181437e+01	2.751080e+06	1.599844e+05	3.462411e+02	4.581940e+00	3.308134e-02	
1.663433e-02	2.933084e-03	1.638155e+00	2.796693e+03	6.714047e+01	2.798619e+06	1.639819e+05	3.487155e+02	4.561741e+00	3.533572e-02	
1.843512e-02	3.250613e-03	1.669518e+00	2.847536e+03	7.299918e+01	2.850911e+06	1.683725e+05	3.513261e+02	4.540637e+00	3.781183e-02	
2.041599e-02	3.599894e-03	1.701361e+00	2.898659e+03	8.112827e+01	2.903840e+06	1.730564e+05	3.543410e+02	4.516594e+00	4.045334e-02	
2.259495e-02	3.984104e-03	1.734347e+00	2.951202e+03	9.136500e+01	2.958532e+06	1.780848e+05	3.577018e+02	4.490156e+00	4.328915e-02	
2.499181e-02	4.406735e-03	1.770632e+00	3.008999e+03	1.026254e+02	3.018693e+06	1.835934e+05	3.612095e+02	4.462906e+00	4.639578e-02	
2.762835e-02	4.871629e-03	1.810545e+00	3.072576e+03	1.150119e+02	3.084870e+06	1.896272e+05	3.648561e+02	4.434939e+00	4.979856e-02	
3.052855e-02	5.383012e-03	1.854449e+00	3.142510e+03	1.286369e+02	3.157665e+06	1.962352e+05	3.686313e+02	4.406363e+00	5.352519e-02	
3.371876e-02	5.945534e-03	1.902744e+00	3.219438e+03	1.436246e+02	3.237739e+06	2.034712e+05	3.725228e+02	4.377298e+00	5.760599e-02	
3.722800e-02	6.564308e-03	1.955869e+00	3.304059e+03	1.601109e+02	3.325821e+06	2.113941e+05	3.765161e+02	4.347873e+00	6.207416e-02	
4.108816e-02	7.244959e-03	2.012743e+00	3.394440e+03	1.787403e+02	3.420075e+06	2.199286e+05	3.806482e+02	4.317877e+00	6.688725e-02	
4.533434e-02	7.993676e-03	2.067023e+00	3.479531e+03	2.018534e+02	3.509784e+06	2.285150e+05	3.851233e+02	4.286040e+00	7.172959e-02	
5.000513e-02	8.817264e-03	2.126730e+00	3.573131e+03	2.272779e+02	3.608464e+06	2.378804e+05	3.896518e+02	4.254280e+00	7.701128e-02	
5.514300e-02	9.723211e-03	2.192408e+00	3.676091e+03	2.552447e+02	3.717011e+06	2.480940e+05	3.942078e+02	4.222773e+00	8.277129e-02	
6.079466e-02	1.071975e-02	2.264654e+00	3.789347e+03	2.860083e+02	3.836413e+06	2.592313e+05	3.987640e+02	4.191691e+00	8.905223e-02	
6.701149e-02	1.181595e-02	2.336060e+00	3.900468e+03	3.202789e+02	3.954343e+06	2.704501e+05	4.033050e+02	4.161274e+00	9.537916e-02	
7.385000e-02	1.302176e-02	2.406736e+00	4.009564e+03	3.583969e+02	4.070977e+06	2.817496e+05	4.078169e+02	4.131572e+00	1.017516e-01	
8.137236e-02	1.434816e-02	2.484480e+00	4.129570e+03	4.003267e+02	4.199275e+06	2.940189e+05	4.122590e+02	4.102670e+00	1.086709e-01	
8.964696e-02	1.580720e-02	2.569230e+00	4.260330e+03	4.463367e+02	4.339135e+06	3.072394e+05	4.165856e+02	4.074831e+00	1.161267e-01	
9.874902e-02	1.741214e-02	2.640632e+00	4.368730e+03	4.937414e+02	4.456930e+06	3.187598e+05	4.205194e+02	4.050061e+00	1.226237e-01	
1.087613e-01	1.917757e-02	2.719174e+00	4.487971e+03	5.458865e+02	4.586504e+06	3.312132e+05	4.243273e+02	4.026269e+00	1.296469e-01	
1.197748e-01	2.111955e-02	2.800079e+00	4.610423e+03	6.015815e+02	4.719993e+06	3.439047e+05	4.278566e+02	4.004410e+00	1.368043e-01	
1.318896e-01	2.325572e-02	2.865573e+00	4.707837e+03	6.557229e+02	4.828131e+06	3.543457e+05	4.307706e+02	3.986671e+00	1.426926e-01	
1.452159e-01	2.560552e-02	2.937617e+00	4.814994e+03	7.152785e+02	4.947083e+06	3.655674e+05	4.335135e+02	3.969997e+00	1.490211e-01	
1.598749e-01	2.819029e-02	2.991206e+00	4.893037e+03	7.695941e+02	5.035742e+06	3.738829e+05	4.354313e+02	3.958493e+00	1.537107e-01	
1.759997e-01	3.103354e-02	3.041926e+00	4.966112e+03	8.257512e+02	5.119739e+06	3.815740e+05	4.369790e+02	3.949217e+00	1.580482e-01	
1.937371e-01	3.416111e-02	3.075859e+00	5.013254e+03	8.752826e+02	5.176203e+06	3.864744e+05	4.377082e+02	3.944869e+00	1.608117e-01	
2.132481e-01	3.760145e-02	3.098842e+00	5.043299e+03	9.217344e+02	5.214737e+06	3.894891e+05	4.378509e+02	3.944012e+00	1.625119e-01	
2.347103e-01	4.138581e-02	3.101172e+00	5.042117e+03	9.570560e+02	5.219349e+06	3.890978e+05	4.370823e+02	3.948594e+00	1.622912e-01	
2.583187e-01	4.554861e-02	3.091795e+00	5.023007e+03	9.877023e+02	5.204768e+06	3.867009e+05	4.357074e+02	3.956805e+00	1.609395e-01	
2.842880e-01	5.012770e-02	3.056122e+00	4.964933e+03	9.999064e+02	5.146871e+06	3.801262e+05	4.332987e+02	3.971308e+00	1.572316e-01	
3.128541e-01	5.516469e-02	3.009451e+00	4.890366e+03	1.005879e+03	5.070876e+06	3.717376e+05	4.303082e+02	3.989452e+00	1.525009e-01	
3.442769e-01	6.070538e-02	2.943115e+00	4.787134e+03	9.950363e+02	4.962359e+06	3.603554e+05	4.265345e+02	4.012612e+00	1.460818e-01	
3.788419e-01	6.680013e-02	2.867324e+00	4.670390e+03	9.737820e+02	4.838102e+06	3.476426e+05	4.223636e+02	4.038544e+00	1.389123e-01	
4.168635e-01	7.350437e-02	2.783516e+00	4.542148e+03	9.438211e+02	4.700497e+06	3.338166e+05	4.177770e+02	4.067480e+00	1.311151e-01	
4.586872e-01	8.087903e-02	2.700376e+00	4.415949e+03	9.052765e+02	4.563683e+06	3.204883e+05	4.134455e+02	4.095255e+00	1.235985e-01	
5.046933e-01	8.899115e-02	2.624470e+00	4.301250e+03	8.644680e+02	4.438604e+06	3.086273e+05	4.096595e+02	4.119945e+00	1.169094e-01	
5.553000e-01	9.791449e-02	2.557052e+00	4.199816e+03	8.231032e+02	4.327395e+06	2.983745e+05	4.064925e+02	4.140951e+00	1.111273e-01	
6.109674e-01	1.077302e-01	2.502996e+00	4.118970e+03	7.838251e+02	4.238143e+06	2.905169e+05	4.043354e+02	4.155596e+00	1.066960e-01	
6.722015e-01	1.185274e-01	2.472572e+00	4.074150e+03	7.532091e+02	4.188014e+06	2.866898e+05	4.039184e+02	4.159013e+00	1.045376e-01	
7.395590e-01	1.304044e-01	2.456253e+00	4.050804e+03	7.289508e+02	4.161443e+06	2.852090e+05	4.045018e+02	4.156037e+00	1.037025e-01	
8.136523e-01	1.434690e-01	2.453218e+00	4.047671e+03	7.116794e+02	4.157219e+06	2.859099e+05	4.059975e+02	4.147342e+00	1.040978e-01	
8.951549e-01	1.578401e-01	2.459338e+00	4.058495e+03	7.015010e+02	4.168699e+06	2.879631e+05	4.078955e+02	4.136338e+00	1.052557e-01	
9.848077e-01	1.831201e-01	2.473643e+00	4.078073e+03	7.024164e+02	4.192338e+06	2.924125e+05	4.118028e+02	4.112189e+00	1.077649e-01	
9.848077e-01	1.929234e-01	2.482811e+00	4.088072e+03	7.073063e+02	4.205285e+06	2.955720e+05	4.147152e+02	4.093133e+00	1.095468e-01	
9.848077e-01	2.030698e-01	2.492301e+00	4.098420e+03	7.123673e+02	4.218686e+06	2.988368e+05	4.176995e+02	4.073788e+00	1.113880e-01	
9.848077e-01	2.135713e-01	2.502123e+00	4.109130e+03	7.176054e+02	4.232556e+06	3.022103e+05	4.207567e+02	4.054157e+00	1.132905e-01	
9.848077e-01	2.244404e-01	2.512288e+00	4.120216e+03	7.230269e+02	4.246911e+06	3.056959e+05	4.238875e+02	4.034246e+00	1.152563e-01	
9.848077e-01	2.356899e-01	2.522809e+00	4.131689e+03	7.286381e+02	4.261768e+06	3.092973e+05	4.270926e+02	4.014060e+00	1.172873e-01	
9.848077e-01	2.473331e-01	2.533699e+00	4.143564e+03	7.344458e+02	4.277146e+06	3.130181e+05	4.303727e+02	3.993604e+00	1.193856e-01	
9.848077e-01	2.593838e-01	2.514716e+00	4.110112e+03	7.249734e+02	4.243339e+06	3.120014e+05	4.322133e+02	3.982171e+00	1.188123e-01	
9.848077e-01	2.718563e-01	2.413367e+00	3.951962e+03	6.733568e+02	4.074073e+06	2.977625e+05	4.298105e+02	3.996837e+00	1.107821e-01	
9.848077e-01	2.847654e-01	2.308471e+00	3.788278e+03	6.199337e+02	3.898884e+06	2.829191e+05	4.269414e+02	4.014423e+00	1.024111e-01	
9.848077e-01	2.981262e-01	2.199903e+00	3.618864e+03	5.646407e+02	3.717562e+06	2.674264e+05	4.234781e+02	4.035779e+00	9.367388e-02	
9.848077e-01	3.119547e-01	2.087536e+00	3.443521e+03	5.074125e+02	3.529895e+06	2.512304e+05	4.192457e+02	4.062094e+00	8.454010e-02	
9.848077e-01	3.262672e-01	1.971236e+00	3.262041e+03	4.481812e+02	3.335659e+06	2.342659e+05	4.140004e+02	4.095080e+00	7.497283e-02	
9.848077e-01	3.410806e-01	1.850866e+00	3.074209e+03	3.868769e+02	3.134625e+06	2.164506e+05	4.073936e+02	4.137277e+00	6.492579e-02	
9.848077e-01	3.564125e-01	1.735912e+00	2.898119e+03	3.212525e+02	2.945552e+06	1.986440e+05	3.986374e+02	4.196648e+00	5.488364e-02	
9.848077e-01	3.722810e-01	1.617097e+00	2.716174e+03	2.532947e+02	2.750182e+06	1.796876e+05	3.870904e+02	4.277074e+00	4.419307e-02	
9.848077e-01	3.887049e-01	1.494123e+00	2.527861e+03	1.829584e+02	2.547973e+06	1.593466e+05	3.715239e+02	4.389945e+00	3.272164e-02	
9.848077e-01	4.057037e-01	1.366845e+00	2.332956e+03	1.101604e+02	2.338687e+06	1.373126e+05	3.499624e+02	4.556290e+00	2.029542e-02	
9.848077e-01	4.232974e-01	1.235113e+00	2.131231e+03	3.481437e+01	2.122076e+06	1.131314e+05	3.190854e+02	4.819251e+00	6.658283e-03	
9.848077e-01	4.415069e-01	1.186505e+00	2.056939e+03	6.837709e+00	2.042235e+06	1.036998e+05	3.044658e+02	4.956053e+00	1.339277e-03	
9.848077e-01	4.603537e-01	1.184153e+00	2.053561e+03	5.215455e+00	2.038502e+06	1.031381e+05	3.034180e+02	4.966284e+00	1.022483e-03	
9.848077e-01	4.798601e-01	1.181719e+00	2.050065e+03	3.536422e+00	2.034638e+06	1.025556e+05	3.023259e+02	4.977000e+00	6.939803e-04	
9.848077e-01	5.000493e-01	1.179199e+00	2.046447e+03	1.798622e+00	2.030639e+06	1.019515e+05	3.011873e+02	4.988229e+00	3.533121e-04	
9.154070e-01	4.912805e-01	1.176591e+00	2.042703e+03	9.548815e-14	2.026500e+06	1.013250e+05	3.000000e+02	5.000000e+00	1.395129e-16	
8.508643e-01	4.636925e-01	1.176591e+00	2.042703e+03	9.455877e-14	2.026500e+06	1.013250e+05	3.000000e+02	5.000000e+00	4.923985e-17	
7.908396e-01	4.380356e-01	1.176591e+00	2.042703e+03	1.360107e-13	2.026500e+06	1.013250e+05	3.000000e+02	5.000000e+00	-1.641328e-17	
7.350167e-01	4.141747e-01	1.176591e+00	2.042703e+03	1.080249e-13	2.026500e+06	1.013250e+05	3.000000e+02	5.000000e+00	-1.559262e-16	
6.831013e-01	3.919841e-01	1.176591e+00	2.042703e+03	1.989111e-13	2.026500e+06	1.013250e+05	3.000000e+02	5.000000e+00	4.923985e-17	
6.348200e-01	3.713468e-01	1.176591e+00	2.042703e+03	2.735846e-13	2.026500e+06	1.013250e+05	3.000000e+02	5.000000e+00	-8.206642e-18	
5.899185e-01	3.521541e-01	1.176591e+00	2.042703e+03	2.961540e-13	2.026500e+06	1.013250e+05	3.000000e+02	5.000000e+00	1.723395e-16	
5.481600e-01	3.343049e-01	1.176591e+00	2.042703e+03	2.878544e-13	2.026500e+06	1.013250e+05	3.000000e+02	5.000000e+00	1.148930e-16	
5.093246e-01	3.177051e-01	1.176591e+00	2.042703e+03	2.556599e-13	2.026500e+06	1.013250e+05	3.000000e+02	5.000000e+00	-3.282657e-17	
4.732077e-01	3.022674e-01	1.176591e+00	2.042703e+03	1.770510e-13	2.026500e+06	1.013250e+05	3.000000e+02	5.000000e+00	-9.847971e-17	
4.396190e-01	2.879102e-01	1.176591e+00	2.042703e+03	1.915816e-13	2.026500e+06	1.013250e+05	3.000000e+02	5.000000e+00	-9.847971e-17	
4.083815e-01	2.745581e-01	1.176591e+00	2.042703e+03	2.546752e-13	2.026500e+06	1.013250e+05	3.000000e+02	5.000000e+00	-1.313063e-16	
3.793306e-01	2.621406e-01	1.176591e+00	2.042703e+03	2.539569e-13	2.026500e+06	1.013250e+05	3.000000e+02	5.000000e+00	4.923985e-17	
3.523133e-01	2.505924e-01	1.176591e+00	2.042703e+03	2.437286e-13	2.026500e+06	1.013250e+05	3.000000e+02	5.000000e+00	4.923985e-17	
3.271871e-01	2.398525e-01	1.176591e+00	2.042703e+03	1.849212e-13	2.026500e+06	1.013250e+05	3.000000e+02	5.000000e+00	-1.559262e-16	
3.038199e-01	2.298644e-01	1.176591e+00	2.042703e+03	1.320406e-13	2.026500e+06	1.013250e+05	3.000000e+02	5.000000e+00	-9.847971e-17	
2.820883e-01	2.205755e-01	1.176591e+00	2.042703e+03	1.040041e-13	2.026500e+06	1.013250e+05	3.000000e+02	5.000000e+00	-1.148930e-16	
2.618779e-01	2.119368e-01	1.176591e+00	2.042703e+03	7.793014e-14	2.026500e+06	1.013250e+05	3.000000e+02	5.000000e+00	8.206642e-18	
2.430823e-01	2.039028e-01	1.176591e+00	2.042703e+03	1.521628e-13	2.026500e+06	1.013250e+05	3.000000e+02	5.000000e+00	1.395129e-16	
2.256023e-01	1.964312e-01	1.176591e+00	2.042703e+03	2.259731e-13	2.026500e+06	1.013250e+05	3.000000e+02	5.000000e+00	1.395129e-16	
2.093460e-01	1.894826e-01	1.176591e+00	2.042703e+03	2.175676e-13	2.026500e+06	1.013250e+05	3.000000e+02	5.000000e+00	8.206642e-18	
1.942276e-01	1.830204e-01	1.176591e+00	2.042703e+03	1.663686e-13	2.026500e+06	1.013250e+05	3.000000e+02	5.000000e+00	-3.282657e-17	
1.801675e-01	1.770106e-01	1.176591e+00	2.042703e+03	1.232861e-13	2.026500e+06	1.013250e+05	3.000000e+02	5.000000e+00	3.282657e-17	
1.670916e-01	1.714214e-01	1.176591e+00	2.042703e+03	1.598765e-13	2.026500e+06	1.013250e+05	3.000000e+02	5.000000e+00	-3.282657e-17	
1.549310e-01	1.662235e-01	1.176591e+00	2.042703e+03	1.939055e-13	2.026500e+06	1.013250e+05	3.000000e+02	5.000000e+00	1.559262e-16	
1.436216e-01	1.613895e-01	1.176591e+00	2.042703e+03	2.244334e-13	2.026500e+06	1.013250e+05	3.000000e+02	5.000000e+00	1.559262e-16	
1.331039e-01	1.568938e-01	1.176591e+00	2.042703e+03	2.455000e-13	2.026500e+06	1.013250e+05	3.000000e+02	5.000000e+00	2.461993e-17	
1.233225e-01	1.527128e-01	1.176591e+00	2.042703e+03	2.650918e-13	2.026500e+06	1.013250e+05	3.000000e+02	5.000000e+00	-9.847971e-17	
1.142257e-01	1.488245e-01	1.176591e+00	2.042703e+03	2.833123e-13	2.026500e+06	1.013250e+05	3.000000e+02	5.000000e+00	-3.282657e-17	
1.057657e-01	1.452084e-01	1.176591e+00	2.042703e+03	2.452071e-13	2.026500e+06	1.013250e+05	3.000000e+02	5.000000e+00	7.385978e-17	
9.789796e-02	1.418454e-01	1.176591e+00	2.042703e+03	1.875854e-13	2.026500e+06	1.013250e+05	3.000000e+02	5.000000e+00	-4.923985e-17	
9.058092e-02	1.387178e-01	1.176591e+00	2.042703e+03	1.339971e-13	2.026500e+06	1.013250e+05	3.000000e+02	5.000000e+00	-4.923985e-17	
8.377608e-02	1.358092e-01	1.176591e+00	2.042703e+03	8.415998e-14	2.026500e+06	1.013250e+05	3.000000e+02	5.000000e+00	-1.230996e-16	
7.744757e-02	1.331041e-01	1.176591e+00	2.042703e+03	7.140719e-14	2.026500e+06	1.013250e+05	3.000000e+02	5.000000e+00	-4.923985e-17	
7.156206e-02	1.305884e-01	1.176591e+00	2.042703e+03	9.018489e-14	2.026500e+06	1.013250e+05	3.000000e+02	5.000000e+00	-1.230996e-16	
6.608853e-02	1.282488e-01	1.176591e+00	2.042703e+03	1.076481e-13	2.026500e+06	1.013250e+05	3.000000e+02	5.000000e+00	-4.923985e-17	
6.099815e-02	1.260730e-01	1.176591e+00	2.042703e+03	1.238890e-13	2.026500e+06	1.013250e+05	3.000000e+02	5.000000e+00	-4.923985e-17	
5.626410e-02	1.240495e-01	1.176591e+00	2.042703e+03	1.389929e-13	2.026500e+06	1.013250e+05	3.000000e+02	5.000000e+00	7.385978e-17	
5.186143e-02	1.221676e-01	1.176591e+00	2.042703e+03	1.530396e-13	2.026500e+06	1.013250e+05	3.000000e+02	5.000000e+00	8.206642e-18	
4.776695e-02	1.204175e-01	1.176591e+00	2.042703e+03	1.590616e-13	2.026500e+06	1.013250e+05	3.000000e+02	5.000000e+00	-6.565314e-17	
4.395908e-02	1.187898e-01	1.176591e+00	2.042703e+03	1.645444e-13	2.026500e+06	1.013250e+05	3.000000e+02	5.000000e+00	-1.230996e-16	
4.041777e-02	1.172761e-01	1.176591e+00	2.042703e+03	1.696435e-13	2.026500e+06	1.013250e+05	3.000000e+02	5.000000e+00	8.206642e-18	
3.712434e-02	1.158684e-01	1.176591e+00	2.042703e+03	1.743857e-13	2.026500e+06	1.013250e+05	3.000000e+02	5.000000e+00	5.744649e-17	
3.406146e-02	1.145592e-01	1.176591e+00	2.042703e+03	1.787959e-13	2.026500e+06	1.013250e+05	3.000000e+02	5.000000e+00	-1.230996e-16	
3.121297e-02	1.133416e-01	1.176591e+00	2.042703e+03	1.828974e-13	2.026500e+06	1.013250e+05	3.000000e+02	5.000000e+00	-1.230996e-16	
2.856388e-02	1.122093e-01	1.176591e+00	2.042703e+03	1.867117e-13	2.026500e+06	1.013250e+05	3.000000e+02	5.000000e+00	-1.887528e-16	
2.610023e-02	1.111563e-01	1.176591e+00	2.042703e+03	1.902591e-13	2.026500e+06	1.013250e+05	3.000000e+02	5.000000e+00	-1.230996e-16	
2.380903e-02	1.101769e-01	1.176591e+00	2.042703e+03	1.910569e-13	2.026500e+06	1.013250e+05	3.000000e+02	5.000000e+00	-7.385978e-17	
2.167822e-02	1.092661e-01	1.176591e+00	2.042703e+03	1.894759e-13	2.026500e+06	1.013250e+05	3.000000e+02	5.000000e+00	-1.230996e-16	
1.969656e-02	1.084191e-01	1.176591e+00	2.042703e+03	1.880055e-13	2.026500e+06	1.013250e+05	3.000000e+02	5.000000e+00	-1.230996e-16	
1.785362e-02	1.076313e-01	1.176591e+00	2.042703e+03	1.866381e-13	2.026500e+06	1.013250e+05	3.000000e+02	5.000000e+00	8.206642e-18	
1.613969e-02	1.068987e-01	1.176591e+00	2.042703e+03	1.853664e-13	2.026500e+06	1.013250e+05	3.000000e+02	5.000000e+00	-1.148930e-16	
1.454573e-02	1.062174e-01	1.176591e+00	2.042703e+03	1.841838e-13	2.026500e+06	1.013250e+05	3.000000e+02	5.000000e+00	7.385978e-17	
1.306335e-02	1.055838e-01	1.176591e+00	2.042703e+03	1.830839e-13	2.026500e+06	1.013250e+05	3.000000e+02	5.000000e+00	-1.230996e-16	
1.168473e-02	1.049945e-01	1.176591e+00	2.042703e+03	1.820610e-13	2.026500e+06	1.013250e+05	3.000000e+02	5.000000e+00	-4.923985e-17	
1.040262e-02	1.044465e-01	1.176591e+00	2.042703e+03	1.811097e-13	2.026500e+06	1.013250e+05	3.000000e+02	5.000000e+00	-4.923985e-17	
9.210254e-03	1.039368e-01	1.176591e+00	2.042703e+03	1.802250e-13	2.026500e+06	1.013250e+05	3.000000e+02	5.000000e+00	8.206642e-18	
8.101356e-03	1.034628e-01	1.176591e+00	2.042703e+03	1.794022e-13	2.026500e+06	1.013250e+05	3.000000e+02	5.000000e+00	-4.923985e-17	
7.070080e-03	1.030220e-01	1.176591e+00	2.042703e+03	1.786371e-13	2.026500e+06	1.013250e+05	3.000000e+02	5.000000e+00	-4.923985e-17	
6.110993e-03	1.026121e-01	1.176591e+00	2.042703e+03	1.779255e-13	2.026500e+06	1.013250e+05	3.000000e+02	5.000000e+00	-4.923985e-17	
5.219043e-03	1.022308e-01	1.176591e+00	2.042703e+03	1.772637e-13	2.026500e+06	1.013250e+05	3.000000e+02	5.000000e+00	7.385978e-17	
4.389529e-03	1.018763e-01	1.176591e+00	2.042703e+03	1.766482e-13	2.026500e+06	1.013250e+05	3.000000e+02	5.000000e+00	8.206642e-18	
3.618081e-03	1.015465e-01	1.176591e+00	2.042703e+03	1.760758e-13	2.026500e+06	1.013250e+05	3.000000e+02	5.000000e+00	-4.923985e-17	
2.900634e-03	1.012398e-01	1.176591e+00	2.042703e+03	1.755435e-13	2.026500e+06	1.013250e+05	3.000000e+02	5.000000e+00	-9.847971e-17	
2.233409e-03	1.009546e-01	1.176591e+00	2.042703e+03	1.750484e-13	2.026500e+06	1.013250e+05	3.000000e+02	5.000000e+00	-4.923985e-17	
1.612889e-03	1.006894e-01	1.176591e+00	2.042703e+03	1.745880e-13	2.026500e+06	1.013250e+05	3.000000e+02	5.000000e+00	2.461993e-17	
1.035806e-03	1.004427e-01	1.176591e+00	2.042703e+03	1.741598e-13	2.026500e+06	1.013250e+05	3.000000e+02	5.000000e+00	8.206642e-18	
4.991189e-04	1.002133e-01	1.176591e+00	2.042703e+03	1.737616e-13	2.026500e+06	1.013250e+05	3.000000e+02	5.000000e+00	-3.282657e-17	
-1.123545e-03	1.000000e-01	1.176591e+00	2.042703e+03	1.692575e-13	2.026500e+06	1.013250e+05	3.000000e+02	5.000000e+00	2.461993e-17	
-2.303267e-03	1.000000e-01	1.176591e+00	2.042703e+03	1.649170e-13	2.026500e+06	1.013250e+05	3.000000e+02	5.000000e+00	-3.282657e-17	
-3.541976e-03	1.000000e-01	1.176591e+00	2.042703e+03	1.603594e-13	2.026500e+06	1.013250e+05	3.000000e+02	5.000000e+00	2.461993e-17	
-4.842620e-03	1.000000e-01	1.176591e+00	2.042703e+03	1.555740e-13	2.026500e+06	1.013250e+05	3.000000e+02	5.000000e+00	8.206642e-18	
-6.208296e-03	1.000000e-01	1.176591e+00	2.042703e+03	1.505494e-13	2.026500e+06	1.013250e+05	3.000000e+02	5.000000e+00	8.206642e-18	
-7.642255e-03	1.000000e-01	1.176591e+00	2.042703e+03	1.452735e-13	2.026500e+06	1.013250e+05	3.000000e+02	5.000000e+00	8.206642e-18	
-9.147913e-03	1.000000e-01	1.176591e+00	2.042703e+03	1.397338e-13	2.026500e+06	1.013250e+05	3.000000e+02	5.000000e+00	-4.923985e-17	
-1.072885e-02	1.000000e-01	1.176591e+00	2.042703e+03	1.339171e-13	2.026500e+06	1.013250e+05	3.000000e+02	5.000000e+00	0.000000e+00	
-1.238884e-02	1.000000e-01	1.176591e+00	2.042703e+03	1.272448e-13	2.026500e+06	1.013250e+05	3.000000e+02	5.000000e+00	8.206642e-18	
-1.413183e-02	1.000000e-01	1.176591e+00	2.042703e+03	1.195830e-13	2.026500e+06	1.013250e+05	3.000000e+02	5.000000e+00	7.385978e-17	
-1.596197e-02	1.000000e-01	1.176591e+00	2.042703e+03	1.115381e-13	2.026500e+06	1.013250e+05	3.000000e+02	5.000000e+00	-6.565314e-17	
-1.788361e-02	1.000000e-01	1.176591e+00	2.042703e+03	1.030910e-13	2.026500e+06	1.013250e+05	3.000000e+02	5.000000e+00	8.206642e-18	
-1.990133e-02	1.000000e-01	1.176591e+00	2.042703e+03	9.422149e-14	2.026500e+06	1.013250e+05	3.000000e+02	5.000000e+00	-1.148930e-16	
-2.201995e-02	1.000000e-01	1.176591e+00	2.042703e+03	8.490853e-14	2.026500e+06	1.013250e+05	3.000000e+02	5.000000e+00	2.461993e-17	
-2.424449e-02	1.000000e-01	1.176591e+00	2.042703e+03	7.613662e-14	2.026500e+06	1.013250e+05	3.000000e+02	5.000000e+00	-3.282657e-17	
-2.658026e-02	1.000000e-01	1.176591e+00	2.042703e+03	7.094463e-14	2.026500e+06	1.013250e+05	3.000000e+02	5.000000e+00	9.027306e-17	
-2.903282e-02	1.000000e-01	1.176591e+00	2.042703e+03	6.549304e-14	2.026500e+06	1.013250e+05	3.000000e+02	5.000000e+00	-1.148930e-16	
-3.160800e-02	1.000000e-01	1.176591e+00	2.042703e+03	5.976887e-14	2.026500e+06	1.013250e+05	3.000000e+02	5.000000e+00	-1.230996e-16	
-3.431195e-02	1.000000e-01	1.176591e+00	2.042703e+03	5.375849e-14	2.026500e+06	1.013250e+05	3.000000e+02	5.000000e+00	8.206642e-18	
-3.715109e-02	1.000000e-01	1.176591e+00	2.042703e+03	4.695440e-14	2.026500e+06	1.013250e+05	3.000000e+02	5.000000e+00	-9.847971e-17	
-4.013219e-02	1.000000e-01	1.176591e+00	2.042703e+03	3.779397e-14	2.026500e+06	1.013250e+05	3.000000e+02	5.000000e+00	-6.565314e-17	
-4.326234e-02	1.000000e-01	1.176591e+00	2.042703e+03	2.817553e-14	2.026500e+06	1.013250e+05	3.000000e+02	5.000000e+00	-2.379926e-16	
-4.654900e-02	1.000000e-01	1.176591e+00	2.042703e+03	1.807616e-14	2.026500e+06	1.013250e+05	3.000000e+02	5.000000e+00	8.206642e-18	
-5.000000e-02	9.293796e-02	1.176591e+00	2.042703e+03	6.816803e-15	2.026500e+06	1.013250e+05	3.000000e+02	5.000000e+00	-1.723395e-16	
-5.000000e-02	8.622903e-02	1.176591e+00	2.042703e+03	6.194538e-15	2.026500e+06	1.013250e+05	3.000000e+02	5.000000e+00	-1.559262e-16	
-5.000000e-02	7.985554e-02	1.176591e+00	2.042703e+03	5.603386e-15	2.026500e+06	1.013250e+05	3.000000e+02	5.000000e+00	-9.027306e-17	
-5.000000e-02	7.380072e-02	1.176591e+00	2.042703e+03	5.041792e-15	2.026500e+06	1.013250e+05	3.000000e+02	5.000000e+00	-9.027306e-17	
-5.000000e-02	6.804865e-02	1.176591e+00	2.042703e+03	2.577396e-15	2.026500e+06	1.013250e+05	3.000000e+02	5.000000e+00	-3.282657e-17	
-5.000000e-02	6.258418e-02	1.176591e+00	2.042703e+03	-4.126971e-17	2.026500e+06	1.013250e+05	3.000000e+02	5.000000e+00	-1.559262e-16	
-5.000000e-02	5.739293e-02	1.176591e+00	2.042703e+03	-2.529002e-15	2.026500e+06	1.013250e+05	3.000000e+02	5.000000e+00	-9.027306e-17	
-5.000000e-02	5.246125e-02	1.176591e+00	2.042703e+03	-4.892347e-15	2.026500e+06	1.013250e+05	3.000000e+02	5.000000e+00	-9.847971e-17	
-5.000000e-02	4.777615e-02	1.176591e+00	2.042703e+03	-7.137526e-15	2.026500e+06	1.013250e+05	3.000000e+02	5.000000e+00	8.206642e-18	
-5.000000e-02	4.332531e-02	1.176591e+00	2.042703e+03	-8.283933e-15	2.026500e+06	1.013250e+05	3.000000e+02	5.000000e+00	-4.923985e-17	
-5.000000e-02	3.909700e-02	1.176591e+00	2.042703e+03	-9.295861e-15	2.026500e+06	1.013250e+05	3.000000e+02	5.000000e+00	-4.923985e-17	
-5.000000e-02	3.508011e-02	1.176591e+00	2.042703e+03	-1.025719e-14	2.026500e+06	1.013250e+05	3.000000e+02	5.000000e+00	-9.847971e-17	
-5.000000e-02	3.126407e-02	1.176591e+00	2.042703e+03	-1.117046e-14	2.026500e+06	1.013250e+05	3.000000e+02	5.000000e+00	-4.923985e-17	
-5.000000e-02	2.763883e-02	1.176591e+00	2.042703e+03	-1.203806e-14	2.026500e+06	1.013250e+05	3.000000e+02	5.000000e+00	-4.923985e-17	
-5.000000e-02	2.419485e-02	1.176591e+00	2.042703e+03	-1.286228e-14	2.026500e+06	1.013250e+05	3.000000e+02	5.000000e+00	-1.887528e-16	