TITLE = "SU2 Simulation"
VARIABLES = "Iteration","CL","CD","CSF","CMx","CMy","CMz","CFx","CFy","CFz","CL/CD","AoA","Custom_ObjFunc","Res_Flow[0]","Res_Flow[1]","Res_Flow[2]","Res_Flow[3]","Res_Flow[4]","Linear_Solver_Iterations","CFL_Number","Time(min)"
ZONE T= "Convergence history"
           0, 2.55528546e-03, 2.20901982e-02, 0.00000000e+00, 0.00000000e+00, 0.00000000e+00, 1.57817258e-03, 2.20901982e-02, 2.55528546e-03, 0.00000000e+00, 1.15675081e-01, 0.00000000e+00, 0.00000000e+00, -1.29333974e+00, 1.08876962e+00, 1.25321747e+00, 4.22012200e+00, 0.00000000e+00, 3.0000000000, 1.0000000000, 0.0068364869
           0, 1.49780432e-02, 2.23367902e-02, 0.00000000e+00, 0.00000000e+00, 0.00000000e+00, 6.81345027e-03, 2.23367902e-02, 1.49780432e-02, 0.00000000e+00, 6.70554859e-01, 0.00000000e+00, 0.00000000e+00, -1.28952557e+00, 1.09385807e+00, 1.25668024e+00, 4.22397541e+00, 0.00000000e+00, 3.0000000000, 1.0000000000, 0.0068364869
           0, -1.50556018e-02, 2.23004859e-02, 0.00000000e+00, 0.00000000e+00, 0.00000000e+00, -7.91831949e-03, 2.23004859e-02, -1.50556018e-02, 0.00000000e+00, -6.75124385e-01, 0.00000000e+00, 0.00000000e+00, -1.28844652e+00, 1.09582664e+00, 1.25716653e+00, 4.22499396e+00, 0.00000000e+00, 3.0000000000, 1.0000000000, 0.0068364869
           1, 4.69088452e-03, 4.17062461e-02, 0.00000000e+00, 0.00000000e+00, 0.00000000e+00, 2.95336711e-03, 4.17062461e-02, 4.69088452e-03, 0.00000000e+00, 1.12474389e-01, 0.00000000e+00, 0.00000000e+00, -1.34707439e+00, 1.03105433e+00, 1.19157899e+00, 4.16805864e+00, 0.00000000e+00, 3.0000000000, 1.0000000000, 0.0011173264
           1, 2.81151171e-02, 4.21669838e-02, 0.00000000e+00, 0.00000000e+00, 0.00000000e+00, 1.28332345e-02, 4.21669838e-02, 2.81151171e-02, 0.00000000e+00, 6.66756656e-01, 0.00000000e+00, 0.00000000e+00, -1.34330921e+00, 1.03620991e+00, 1.19501952e+00, 4.17182691e+00, 0.00000000e+00, 3.0000000000, 1.0000000000, 0.0011173264
           1, -2.84512505e-02, 4.21066621e-02, 0.00000000e+00, 0.00000000e+00, 0.00000000e+00, -1.49326172e-02, 4.21066621e-02, -2.84512505e-02, 0.00000000e+00, -6.75694748e-01, 0.00000000e+00, 0.00000000e+00, -1.34218060e+00, 1.03823447e+00, 1.19568808e+00, 4.17285576e+00, 0.00000000e+00, 3.0000000000, 1.0000000000, 0.0011173264
           2, 6.43270062e-03, 5.90774157e-02, 0.00000000e+00, 0.00000000e+00, 0.00000000e+00, 4.12941047e-03, 5.90774157e-02, 6.43270062e-03, 0.00000000e+00, 1.08885951e-01, 0.00000000e+00, 0.00000000e+00, -1.39540577e+00, 9.79853206e-01, 1.13661939e+00, 4.12098280e+00, 0.00000000e+00, 3.0000000000, 1.0000000000, 0.0021599466
           2, 3.94762571e-02, 5.97227123e-02, 0.00000000e+00, 0.00000000e+00, 0.00000000e+00, 1.80571955e-02, 5.97227123e-02, 3.94762571e-02, 0.00000000e+00, 6.60992370e-01, 0.00000000e+00, 0.00000000e+00, -1.39165258e+00, 9.85063268e-01, 1.14009774e+00, 4.12471876e+00, 0.00000000e+00, 3.0000000000, 1.0000000000, 0.0021599466
           2, -4.02053778e-02, 5.96466348e-02, 0.00000000e+00, 0.00000000e+00, 0.00000000e+00, -2.10321379e-02, 5.96466348e-02, -4.02053778e-02, 0.00000000e+00, -6.74059450e-01, 0.00000000e+00, 0.00000000e+00, -1.39062313e+00, 9.86948025e-01, 1.14078218e+00, 4.12561646e+00, 0.00000000e+00, 3.0000000000, 1.0000000000, 0.0021599466
           3, 7.81365910e-03, 7.42958364e-02, 0.00000000e+00, 0.00000000e+00, 0.00000000e+00, 5.11395080e-03, 7.42958364e-02, 7.81365910e-03, 0.00000000e+00, 1.05169542e-01, 0.00000000e+00, 0.00000000e+00, -1.43801628e+00, 9.35946830e-01, 1.08951494e+00, 4.07929414e+00, 0.00000000e+00, 3.0000000000, 1.0000000000, 0.0031819982
           3, 4.91619844e-02, 7.50960326e-02, 0.00000000e+00, 0.00000000e+00, 0.00000000e+00, 2.25136425e-02, 7.50960326e-02, 4.91619844e-02, 0.00000000e+00, 6.54654883e-01, 0.00000000e+00, 0.00000000e+00, -1.43421905e+00, 9.41228297e-01, 1.09309546e+00, 4.08306844e+00, 0.00000000e+00, 3.0000000000, 1.0000000000, 0.0031819982
           3, -5.03721542e-02, 7.50129828e-02, 0.00000000e+00, 0.00000000e+00, 0.00000000e+00, -2.62422050e-02, 7.50129828e-02, -5.03721542e-02, 0.00000000e+00, -6.71512481e-01, 0.00000000e+00, 0.00000000e+00, -1.43340551e+00, 9.42825474e-01, 1.09362693e+00, 4.08372904e+00, 0.00000000e+00, 3.0000000000, 1.0000000000, 0.0031819982
           4, 8.86639345e-03, 8.74980810e-02, 0.00000000e+00, 0.00000000e+00, 0.00000000e+00, 5.92042713e-03, 8.74980810e-02, 8.86639345e-03, 0.00000000e+00, 1.01332433e-01, 0.00000000e+00, 0.00000000e+00, -1.47447233e+00, 9.00283702e-01, 1.05126284e+00, 4.04344340e+00, 0.00000000e+00, 3.0000000000, 1.0000000000, 0.0042403047
           4, 5.72885550e-02, 8.84251155e-02, 0.00000000e+00, 0.00000000e+00, 0.00000000e+00, 2.62518653e-02, 8.84251155e-02, 5.72885550e-02, 0.00000000e+00, 6.47876507e-01, 0.00000000e+00, 0.00000000e+00, -1.47056861e+00, 9.05662783e-01, 1.05500100e+00, 4.04732970e+00, 0.00000000e+00, 3.0000000000, 1.0000000000, 0.0042403047
           4, -5.90477292e-02, 8.83442974e-02, 0.00000000e+00, 0.00000000e+00, 0.00000000e+00, -3.06173195e-02, 8.83442974e-02, -5.90477292e-02, 0.00000000e+00, -6.68381899e-01, 0.00000000e+00, 0.00000000e+00, -1.47004653e+00, 9.06883610e-01, 1.05524324e+00, 4.04768814e+00, 0.00000000e+00, 3.0000000000, 1.0000000000, 0.0042403047
           5, 9.63196327e-03, 9.88144107e-02, 0.00000000e+00, 0.00000000e+00, 0.00000000e+00, 6.56619779e-03, 9.88144107e-02, 9.63196327e-03, 0.00000000e+00, 9.74752893e-02, 0.00000000e+00, 0.00000000e+00, -1.50452966e+00, 8.72986004e-01, 1.02216206e+00, 4.01364788e+00, 0.00000000e+00, 3.0000000000, 1.0000000000, 0.0052795435
           5, 6.39995056e-02, 9.98440997e-02, 0.00000000e+00, 0.00000000e+00, 0.00000000e+00, 2.93346752e-02, 9.98440997e-02, 6.39995056e-02, 0.00000000e+00, 6.40994368e-01, 0.00000000e+00, 0.00000000e+00, -1.50047015e+00, 8.78482166e-01, 1.02608596e+00, 4.01770296e+00, 0.00000000e+00, 3.0000000000, 1.0000000000, 0.0052795435
           5, -6.63522991e-02, 9.97707330e-02, 0.00000000e+00, 0.00000000e+00, 0.00000000e+00, -3.42305316e-02, 9.97707330e-02, -6.63522991e-02, 0.00000000e+00, -6.65047726e-01, 0.00000000e+00, 0.00000000e+00, -1.50026694e+00, 8.79304773e-01, 1.02596957e+00, 4.01773911e+00, 0.00000000e+00, 3.0000000000, 1.0000000000, 0.0052795435
           6, 1.01517288e-02, 1.08353076e-01, 0.00000000e+00, 0.00000000e+00, 0.00000000e+00, 7.07029637e-03, 1.08353076e-01, 1.01517288e-02, 0.00000000e+00, 9.36911921e-02, 0.00000000e+00, 0.00000000e+00, -1.52826545e+00, 8.53265722e-01, 1.00156855e+00, 3.98980317e+00, 0.00000000e+00, 3.0000000000, 1.0000000000, 0.0063030537
           6, 6.94421260e-02, 1.09463341e-01, 0.00000000e+00, 0.00000000e+00, 0.00000000e+00, 3.18313316e-02, 1.09463341e-01, 6.94421260e-02, 0.00000000e+00, 6.34387052e-01, 0.00000000e+00, 0.00000000e+00, -1.52403023e+00, 8.58868649e-01, 1.00567053e+00, 3.99404822e+00, 0.00000000e+00, 3.0000000000, 1.0000000000, 0.0063030537
           6, -7.24161537e-02, 1.09401721e-01, 0.00000000e+00, 0.00000000e+00, 0.00000000e+00, -3.71634092e-02, 1.09401721e-01, -7.24161537e-02, 0.00000000e+00, -6.61928837e-01, 0.00000000e+00, 0.00000000e+00, -1.52412513e+00, 8.59351527e-01, 1.00520285e+00, 3.99379041e+00, 0.00000000e+00, 3.0000000000, 1.0000000000, 0.0063030537
           7, 1.04665145e-02, 1.16210309e-01, 0.00000000e+00, 0.00000000e+00, 0.00000000e+00, 7.45145332e-03, 1.16210309e-01, 1.04665145e-02, 0.00000000e+00, 9.00652838e-02, 0.00000000e+00, 0.00000000e+00, -1.54605950e+00, 8.39763630e-01, 9.88102855e-01, 3.97158138e+00, 0.00000000e+00, 3.0000000000, 1.0000000000, 0.0073579055
           7, 7.37606528e-02, 1.17383721e-01, 0.00000000e+00, 0.00000000e+00, 0.00000000e+00, 3.38109557e-02, 1.17383721e-01, 7.37606528e-02, 0.00000000e+00, 6.28372077e-01, 0.00000000e+00, 0.00000000e+00, -1.54166410e+00, 8.45442470e-01, 9.92342664e-01, 3.97600035e+00, 0.00000000e+00, 3.0000000000, 1.0000000000, 0.0073579055
           7, -7.73681703e-02, 1.17335789e-01, 0.00000000e+00, 0.00000000e+00, 0.00000000e+00, -3.94976760e-02, 1.17335789e-01, -7.73681703e-02, 0.00000000e+00, -6.59374014e-01, 0.00000000e+00, 0.00000000e+00, -1.54199695e+00, 8.45679947e-01, 9.91596410e-01, 3.97551169e+00, 0.00000000e+00, 3.0000000000, 1.0000000000, 0.0073579055
           8, 1.05973187e-02, 1.22477298e-01, 0.00000000e+00, 0.00000000e+00, 0.00000000e+00, 7.72624344e-03, 1.22477298e-01, 1.05973187e-02, 0.00000000e+00, 8.65247591e-02, 0.00000000e+00, 0.00000000e+00, -1.55856547e+00, 8.30933825e-01, 9.80021729e-01, 3.95844742e+00, 0.00000000e+00, 3.0000000000, 1.0000000000, 0.0083970358
           8, 7.70737340e-02, 1.23698089e-01, 0.00000000e+00, 0.00000000e+00, 0.00000000e+00, 3.53371773e-02, 1.23698089e-01, 7.70737340e-02, 0.00000000e+00, 6.23079422e-01, 0.00000000e+00, 0.00000000e+00, -1.55405875e+00, 8.36642122e-01, 9.84339691e-01, 3.96298633e+00, 0.00000000e+00, 3.0000000000, 1.0000000000, 0.0083970358
           8, -8.13458946e-02, 1.23665237e-01, 0.00000000e+00, 0.00000000e+00, 0.00000000e+00, -4.13107292e-02, 1.23665237e-01, -8.13458946e-02, 0.00000000e+00, -6.57791120e-01, 0.00000000e+00, 0.00000000e+00, -1.55454279e+00, 8.36743005e-01, 9.83422129e-01, 3.96235803e+00, 0.00000000e+00, 3.0000000000, 1.0000000000, 0.0083970358
           9, 1.05808349e-02, 1.27254832e-01, 0.00000000e+00, 0.00000000e+00, 0.00000000e+00, 7.91166741e-03, 1.27254832e-01, 1.05808349e-02, 0.00000000e+00, 8.31468220e-02, 0.00000000e+00, 0.00000000e+00, -1.56664372e+00, 8.25349735e-01, 9.75612583e-01, 3.94968582e+00, 0.00000000e+00, 3.0000000000, 1.0000000000, 0.0094200133
           9, 7.95122225e-02, 1.28508877e-01, 0.00000000e+00, 0.00000000e+00, 0.00000000e+00, 3.64721446e-02, 1.28508877e-01, 7.95122225e-02, 0.00000000e+00, 6.18729416e-01, 0.00000000e+00, 0.00000000e+00, -1.56208682e+00, 8.31041182e-01, 9.79948410e-01, 3.95427857e+00, 0.00000000e+00, 3.0000000000, 1.0000000000, 0.0094200133
           9, -8.44636671e-02, 1.28492751e-01, 0.00000000e+00, 0.00000000e+00, 0.00000000e+00, -4.26744987e-02, 1.28492751e-01, -8.44636671e-02, 0.00000000e+00, -6.57341885e-01, 0.00000000e+00, 0.00000000e+00, -1.56263554e+00, 8.31099614e-01, 9.78967314e-01, 3.95359855e+00, 0.00000000e+00, 3.0000000000, 1.0000000000, 0.0094200133
          10, 1.04474330e-02, 1.30683696e-01, 0.00000000e+00, 0.00000000e+00, 0.00000000e+00, 8.02051277e-03, 1.30683696e-01, 1.04474330e-02, 0.00000000e+00, 7.99444258e-02, 0.00000000e+00, 0.00000000e+00, -1.57122031e+00, 8.21906396e-01, 9.73458973e-01, 3.94451828e+00, 0.00000000e+00, 3.0000000000, 1.0000000000, 0.0104750101
          10, 8.11975682e-02, 1.31958582e-01, 0.00000000e+00, 0.00000000e+00, 0.00000000e+00, 3.72700656e-02, 1.31958582e-01, 8.11975682e-02, 0.00000000e+00, 6.15326165e-01, 0.00000000e+00, 0.00000000e+00, -1.56667473e+00, 8.27541540e-01, 9.77762869e-01, 3.94909834e+00, 0.00000000e+00, 3.0000000000, 1.0000000000, 0.0104750101
          10, -8.68317695e-02, 1.31961216e-01, 0.00000000e+00, 0.00000000e+00, 0.00000000e+00, -4.36567756e-02, 1.31961216e-01, -8.68317695e-02, 0.00000000e+00, -6.58009770e-01, 0.00000000e+00, 0.00000000e+00, -1.56721181e+00, 8.27629410e-01, 9.76806319e-01, 3.94844337e+00, 0.00000000e+00, 3.0000000000, 1.0000000000, 0.0104750101
          11, 1.02235089e-02, 1.32874686e-01, 0.00000000e+00, 0.00000000e+00, 0.00000000e+00, 8.06071992e-03, 1.32874686e-01, 1.02235089e-02, 0.00000000e+00, 7.69409822e-02, 0.00000000e+00, 0.00000000e+00, -1.57307615e+00, 8.19796181e-01, 9.72647074e-01, 3.94227679e+00, 0.00000000e+00, 3.0000000000, 1.0000000000, 0.0115150094
          11, 8.22305779e-02, 1.34159475e-01, 0.00000000e+00, 0.00000000e+00, 0.00000000e+00, 3.77719457e-02, 1.34159475e-01, 8.22305779e-02, 0.00000000e+00, 6.12931574e-01, 0.00000000e+00, 0.00000000e+00, -1.56858589e+00, 8.25351869e-01, 9.76891124e-01, 3.94679834e+00, 0.00000000e+00, 3.0000000000, 1.0000000000, 0.0115150094
          11, -8.85386548e-02, 1.34182914e-01, 0.00000000e+00, 0.00000000e+00, 0.00000000e+00, -4.43138036e-02, 1.34182914e-01, -8.85386548e-02, 0.00000000e+00, -6.59835536e-01, 0.00000000e+00, 0.00000000e+00, -1.56906995e+00, 8.25511284e-01, 9.76002867e-01, 3.94620402e+00, 0.00000000e+00, 3.0000000000, 1.0000000000, 0.0115150094
          12, 9.93924959e-03, 1.33891552e-01, 0.00000000e+00, 0.00000000e+00, 0.00000000e+00, 8.04216865e-03, 1.33891552e-01, 9.93924959e-03, 0.00000000e+00, 7.42335826e-02, 0.00000000e+00, 0.00000000e+00, -1.57292691e+00, 8.18476821e-01, 9.72514616e-01, 3.94233989e+00, 0.00000000e+00, 3.0000000000, 1.0000000000, 0.0125375743
          12, 8.27013217e-02, 1.35175618e-01, 0.00000000e+00, 0.00000000e+00, 0.00000000e+00, 3.80172150e-02, 1.35175618e-01, 8.27013217e-02, 0.00000000e+00, 6.11806501e-01, 0.00000000e+00, 0.00000000e+00, -1.56852024e+00, 8.23950149e-01, 9.76678479e-01, 3.94677252e+00, 0.00000000e+00, 3.0000000000, 1.0000000000, 0.0125375743
          12, -8.96504731e-02, 1.35223252e-01, 0.00000000e+00, 0.00000000e+00, 0.00000000e+00, -4.46923941e-02, 1.35223252e-01, -8.96504731e-02, 0.00000000e+00, -6.62981192e-01, 0.00000000e+00, 0.00000000e+00, -1.56893054e+00, 8.24185364e-01, 9.75892616e-01, 3.94625570e+00, 0.00000000e+00, 3.0000000000, 1.0000000000, 0.0125375743
          13, 9.61552489e-03, 1.33791099e-01, 0.00000000e+00, 0.00000000e+00, 0.00000000e+00, 7.97910726e-03, 1.33791099e-01, 9.61552489e-03, 0.00000000e+00, 7.18696906e-02, 0.00000000e+00, 0.00000000e+00, -1.57145470e+00, 8.17549856e-01, 9.72645946e-01, 3.94407846e+00, 0.00000000e+00, 3.0000000000, 1.0000000000, 0.0135928009
          13, 8.26934907e-02, 1.35067761e-01, 0.00000000e+00, 0.00000000e+00, 0.00000000e+00, 3.80471636e-02, 1.35067761e-01, 8.26934907e-02, 0.00000000e+00, 6.12237072e-01, 0.00000000e+00, 0.00000000e+00, -1.56716175e+00, 8.22936597e-01, 9.76712131e-01, 3.94838468e+00, 0.00000000e+00, 3.0000000000, 1.0000000000, 0.0135928009
          13, -9.02405515e-02, 1.35137980e-01, 0.00000000e+00, 0.00000000e+00, 0.00000000e+00, -4.48299238e-02, 1.35137980e-01, -9.02405515e-02, 0.00000000e+00, -6.67766021e-01, 0.00000000e+00, 0.00000000e+00, -1.56746301e+00, 8.23260995e-01, 9.76060018e-01, 3.94798689e+00, 0.00000000e+00, 3.0000000000, 1.0000000000, 0.0135928009
          14, 9.25352391e-03, 1.32698571e-01, 0.00000000e+00, 0.00000000e+00, 0.00000000e+00, 7.87812959e-03, 1.32698571e-01, 9.25352391e-03, 0.00000000e+00, 6.97334103e-02, 0.00000000e+00, 0.00000000e+00, -1.56952913e+00, 8.16627269e-01, 9.72670490e-01, 3.94647510e+00, 0.00000000e+00, 3.0000000000, 1.0000000000, 0.0146337976
          14, 8.22656719e-02, 1.33959942e-01, 0.00000000e+00, 0.00000000e+00, 0.00000000e+00, 3.78959835e-02, 1.33959942e-01, 8.22656719e-02, 0.00000000e+00, 6.14106506e-01, 0.00000000e+00, 0.00000000e+00, -1.56534192e+00, 8.21932882e-01, 9.76639320e-01, 3.95066661e+00, 0.00000000e+00, 3.0000000000, 1.0000000000, 0.0146337976
          14, -9.03924376e-02, 1.34054773e-01, 0.00000000e+00, 0.00000000e+00, 0.00000000e+00, -4.47693105e-02, 1.34054773e-01, -9.03924376e-02, 0.00000000e+00, -6.74294808e-01, 0.00000000e+00, 0.00000000e+00, -1.56555712e+00, 8.22332402e-01, 9.76116065e-01, 3.95035570e+00, 0.00000000e+00, 3.0000000000, 1.0000000000, 0.0146337976
          15, 8.88760382e-03, 1.30751592e-01, 0.00000000e+00, 0.00000000e+00, 0.00000000e+00, 7.74916226e-03, 1.30751592e-01, 8.88760382e-03, 0.00000000e+00, 6.79731977e-02, 0.00000000e+00, 0.00000000e+00, -1.56782056e+00, 8.15585758e-01, 9.72202673e-01, 3.94868606e+00, 0.00000000e+00, 3.0000000000, 1.0000000000, 0.0156568405
          15, 8.15135682e-02, 1.31993742e-01, 0.00000000e+00, 0.00000000e+00, 0.00000000e+00, 3.75993778e-02, 1.31993742e-01, 8.15135682e-02, 0.00000000e+00, 6.17556311e-01, 0.00000000e+00, 0.00000000e+00, -1.56375039e+00, 8.20798072e-01, 9.76063467e-01, 3.95274600e+00, 0.00000000e+00, 3.0000000000, 1.0000000000, 0.0156568405
          15, -9.01586290e-02, 1.32110267e-01, 0.00000000e+00, 0.00000000e+00, 0.00000000e+00, -4.45476478e-02, 1.32110267e-01, -9.01586290e-02, 0.00000000e+00, -6.82449827e-01, 0.00000000e+00, 0.00000000e+00, -1.56385742e+00, 8.21287370e-01, 9.75688685e-01, 3.95255571e+00, 0.00000000e+00, 3.0000000000, 1.0000000000, 0.0156568405
          16, 8.53197210e-03, 1.28134756e-01, 0.00000000e+00, 0.00000000e+00, 0.00000000e+00, 7.60117138e-03, 1.28134756e-01, 8.53197210e-03, 0.00000000e+00, 6.65859314e-02, 0.00000000e+00, 0.00000000e+00, -1.56693811e+00, 8.14149131e-01, 9.70978792e-01, 3.94991774e+00, 0.00000000e+00, 3.0000000000, 1.0000000000, 0.0167115061
          16, 8.05140717e-02, 1.29355792e-01, 0.00000000e+00, 0.00000000e+00, 0.00000000e+00, 3.71908821e-02, 1.29355792e-01, 8.05140717e-02, 0.00000000e+00, 6.22423400e-01, 0.00000000e+00, 0.00000000e+00, -1.56296605e+00, 8.19270684e-01, 9.74746623e-01, 3.95386969e+00, 0.00000000e+00, 3.0000000000, 1.0000000000, 0.0167115061
          16, -8.96089394e-02, 1.29489609e-01, 0.00000000e+00, 0.00000000e+00, 0.00000000e+00, -4.41995648e-02, 1.29489609e-01, -8.96089394e-02, 0.00000000e+00, -6.92016449e-01, 0.00000000e+00, 0.00000000e+00, -1.56298409e+00, 8.19846178e-01, 9.74501061e-01, 3.95377849e+00, 0.00000000e+00, 3.0000000000, 1.0000000000, 0.0167115061
          17, 8.20013485e-03, 1.25033388e-01, 0.00000000e+00, 0.00000000e+00, 0.00000000e+00, 7.44101694e-03, 1.25033388e-01, 8.20013485e-03, 0.00000000e+00, 6.55835614e-02, 0.00000000e+00, 0.00000000e+00, -1.56714755e+00, 8.12209596e-01, 9.68859586e-01, 3.94978679e+00, 0.00000000e+00, 3.0000000000, 1.0000000000, 0.0177519333
          17, 7.93389587e-02, 1.26232287e-01, 0.00000000e+00, 0.00000000e+00, 0.00000000e+00, 3.66997672e-02, 1.26232287e-01, 7.93389587e-02, 0.00000000e+00, 6.28515577e-01, 0.00000000e+00, 0.00000000e+00, -1.56324677e+00, 8.17254875e-01, 9.72557475e-01, 3.95366510e+00, 0.00000000e+00, 3.0000000000, 1.0000000000, 0.0177519333
          17, -8.88065463e-02, 1.26379271e-01, 0.00000000e+00, 0.00000000e+00, 0.00000000e+00, -4.37574340e-02, 1.26379271e-01, -8.88065463e-02, 0.00000000e+00, -7.02698677e-01, 0.00000000e+00, 0.00000000e+00, -1.56320443e+00, 8.17897011e-01, 9.72409885e-01, 3.95363944e+00, 0.00000000e+00, 3.0000000000, 1.0000000000, 0.0177519333
          18, 7.89774990e-03, 1.21627365e-01, 0.00000000e+00, 0.00000000e+00, 0.00000000e+00, 7.27485447e-03, 1.21627365e-01, 7.89774990e-03, 0.00000000e+00, 6.49339881e-02, 0.00000000e+00, 0.00000000e+00, -1.56845009e+00, 8.09820377e-01, 9.65903386e-01, 3.94829069e+00, 0.00000000e+00, 3.0000000000, 1.0000000000, 0.0187754316
          18, 7.80486189e-02, 1.22804435e-01, 0.00000000e+00, 0.00000000e+00, 0.00000000e+00, 3.61523159e-02, 1.22804435e-01, 7.80486189e-02, 0.00000000e+00, 6.35552117e-01, 0.00000000e+00, 0.00000000e+00, -1.56459175e+00, 8.14810998e-01, 9.69562181e-01, 3.95213361e+00, 0.00000000e+00, 3.0000000000, 1.0000000000, 0.0187754316
          18, -8.78154965e-02, 1.22959993e-01, 0.00000000e+00, 0.00000000e+00, 0.00000000e+00, -4.32496949e-02, 1.22959993e-01, -8.78154965e-02, 0.00000000e+00, -7.14179422e-01, 0.00000000e+00, 0.00000000e+00, -1.56452116e+00, 8.15488512e-01, 9.69469696e-01, 3.95213246e+00, 0.00000000e+00, 3.0000000000, 1.0000000000, 0.0187754316
          19, 7.62601614e-03, 1.18081225e-01, 0.00000000e+00, 0.00000000e+00, 0.00000000e+00, 7.10802592e-03, 1.18081225e-01, 7.62601614e-03, 0.00000000e+00, 6.45827997e-02, 0.00000000e+00, 0.00000000e+00, -1.57068324e+00, 8.07096278e-01, 9.62227886e-01, 3.94562895e+00, 0.00000000e+00, 3.0000000000, 1.0000000000, 0.0198311781
          19, 7.66947281e-02, 1.19237178e-01, 0.00000000e+00, 0.00000000e+00, 0.00000000e+00, 3.55716112e-02, 1.19237178e-01, 7.66947281e-02, 0.00000000e+00, 6.43211533e-01, 0.00000000e+00, 0.00000000e+00, -1.56684369e+00, 8.12053223e-01, 9.65873522e-01, 3.94946508e+00, 0.00000000e+00, 3.0000000000, 1.0000000000, 0.0198311781
          19, -8.66966995e-02, 1.19397593e-01, 0.00000000e+00, 0.00000000e+00, 0.00000000e+00, -4.27007836e-02, 1.19397593e-01, -8.66966995e-02, 0.00000000e+00, -7.26117651e-01, 0.00000000e+00, 0.00000000e+00, -1.56677069e+00, 8.12735897e-01, 9.65802969e-01, 3.94946022e+00, 0.00000000e+00, 3.0000000000, 1.0000000000, 0.0198311781
          20, 7.38508902e-03, 1.14533482e-01, 0.00000000e+00, 0.00000000e+00, 0.00000000e+00, 6.94498073e-03, 1.14533482e-01, 7.38508902e-03, 0.00000000e+00, 6.44797392e-02, 0.00000000e+00, 0.00000000e+00, -1.57363229e+00, 8.04126307e-01, 9.57992019e-01, 3.94205927e+00, 0.00000000e+00, 3.0000000000, 1.0000000000, 0.0208680318
          20, 7.53207617e-02, 1.15669620e-01, 0.00000000e+00, 0.00000000e+00, 0.00000000e+00, 3.49773137e-02, 1.15669620e-01, 7.53207617e-02, 0.00000000e+00, 6.51171518e-01, 0.00000000e+00, 0.00000000e+00, -1.56979344e+00, 8.09073644e-01, 9.61646019e-01, 3.94590835e+00, 0.00000000e+00, 3.0000000000, 1.0000000000, 0.0208680318
          20, -8.55025481e-02, 1.15831520e-01, 0.00000000e+00, 0.00000000e+00, 0.00000000e+00, -4.21312989e-02, 1.15831520e-01, -8.55025481e-02, 0.00000000e+00, -7.38163050e-01, 0.00000000e+00, 0.00000000e+00, -1.56973554e+00, 8.09728651e-01, 9.61574292e-01, 3.94588473e+00, 0.00000000e+00, 3.0000000000, 1.0000000000, 0.0208680318
          21, 7.17759709e-03, 1.11091488e-01, 0.00000000e+00, 0.00000000e+00, 0.00000000e+00, 6.78952069e-03, 1.11091488e-01, 7.17759709e-03, 0.00000000e+00, 6.46097846e-02, 0.00000000e+00, 0.00000000e+00, -1.57698574e+00, 8.01060088e-01, 9.53507052e-01, 3.93798132e+00, 0.00000000e+00, 3.0000000000, 1.0000000000, 0.0218904206
          21, 7.39657303e-02, 1.12208811e-01, 0.00000000e+00, 0.00000000e+00, 0.00000000e+00, 3.43861101e-02, 1.12208811e-01, 7.39657303e-02, 0.00000000e+00, 6.59179341e-01, 0.00000000e+00, 0.00000000e+00, -1.57314030e+00, 8.06015703e-01, 9.57178719e-01, 3.94184951e+00, 0.00000000e+00, 3.0000000000, 1.0000000000, 0.0218904206
          21, -8.42742424e-02, 1.12370286e-01, 0.00000000e+00, 0.00000000e+00, 0.00000000e+00, -4.15581251e-02, 1.12370286e-01, -8.42742424e-02, 0.00000000e+00, -7.49969104e-01, 0.00000000e+00, 0.00000000e+00, -1.57310377e+00, 8.06619985e-01, 9.57097146e-01, 3.94180541e+00, 0.00000000e+00, 3.0000000000, 1.0000000000, 0.0218904206
          22, 7.00479688e-03, 1.07828235e-01, 0.00000000e+00, 0.00000000e+00, 0.00000000e+00, 6.64459408e-03, 1.07828235e-01, 7.00479688e-03, 0.00000000e+00, 6.49625481e-02, 0.00000000e+00, 0.00000000e+00, -1.58046354e+00, 7.98003733e-01, 9.49015132e-01, 3.93373765e+00, 0.00000000e+00, 3.0000000000, 1.0000000000, 0.0229453134
          22, 7.26616318e-02, 1.08927613e-01, 0.00000000e+00, 0.00000000e+00, 0.00000000e+00, 3.38117141e-02, 1.08927613e-01, 7.26616318e-02, 0.00000000e+00, 6.67063470e-01, 0.00000000e+00, 0.00000000e+00, -1.57660565e+00, 8.02983183e-01, 9.52713938e-01, 3.93763010e+00, 0.00000000e+00, 3.0000000000, 1.0000000000, 0.0229453134
          22, -8.30462248e-02, 1.09087754e-01, 0.00000000e+00, 0.00000000e+00, 0.00000000e+00, -4.09950843e-02, 1.09087754e-01, -8.30462248e-02, 0.00000000e+00, -7.61279075e-01, 0.00000000e+00, 0.00000000e+00, -1.57659636e+00, 8.03518826e-01, 9.52614415e-01, 3.93756284e+00, 0.00000000e+00, 3.0000000000, 1.0000000000, 0.0229453134
          23, 6.86928205e-03, 1.04787559e-01, 0.00000000e+00, 0.00000000e+00, 0.00000000e+00, 6.51251460e-03, 1.04787559e-01, 6.86928205e-03, 0.00000000e+00, 6.55543663e-02, 0.00000000e+00, 0.00000000e+00, -1.58384852e+00, 7.95033052e-01, 9.44696346e-01, 3.92957778e+00, 0.00000000e+00, 3.0000000000, 1.0000000000, 0.0239852388
          23, 7.14365427e-02, 1.05869892e-01, 0.00000000e+00, 0.00000000e+00, 0.00000000e+00, 3.32652675e-02, 1.05869892e-01, 7.14365427e-02, 0.00000000e+00, 6.74757869e-01, 0.00000000e+00, 0.00000000e+00, -1.57997597e+00, 8.00040536e-01, 9.48430203e-01, 3.93349599e+00, 0.00000000e+00, 3.0000000000, 1.0000000000, 0.0239852388
          23, -8.18450537e-02, 1.06028521e-01, 0.00000000e+00, 0.00000000e+00, 0.00000000e+00, -4.04531856e-02, 1.06028521e-01, -8.18450537e-02, 0.00000000e+00, -7.71915451e-01, 0.00000000e+00, 0.00000000e+00, -1.57999684e+00, 8.00509882e-01, 9.48303665e-01, 3.93340448e+00, 0.00000000e+00, 3.0000000000, 1.0000000000, 0.0239852388
          24, 6.77437198e-03, 1.01993009e-01, 0.00000000e+00, 0.00000000e+00, 0.00000000e+00, 6.39502951e-03, 1.01993009e-01, 6.77437198e-03, 0.00000000e+00, 6.64199637e-02, 0.00000000e+00, 0.00000000e+00, -1.58698071e+00, 7.92228635e-01, 9.40693089e-01, 3.92569201e+00, 0.00000000e+00, 3.0000000000, 1.0000000000, 0.0250071643
          24, 7.03128861e-02, 1.03059782e-01, 0.00000000e+00, 0.00000000e+00, 0.00000000e+00, 3.27555203e-02, 1.03059782e-01, 7.03128861e-02, 0.00000000e+00, 6.82253393e-01, 0.00000000e+00, 0.00000000e+00, -1.58309390e+00, 7.97267683e-01, 9.44462695e-01, 3.92963503e+00, 0.00000000e+00, 3.0000000000, 1.0000000000, 0.0250071643
          24, -8.06890419e-02, 1.03216228e-01, 0.00000000e+00, 0.00000000e+00, 0.00000000e+00, -3.99408331e-02, 1.03216228e-01, -8.06890419e-02, 0.00000000e+00, -7.81747635e-01, 0.00000000e+00, 0.00000000e+00, -1.58314419e+00, 7.97675318e-01, 9.44310598e-01, 3.92952157e+00, 0.00000000e+00, 3.0000000000, 1.0000000000, 0.0250071643
          25, 6.72406428e-03, 9.94544286e-02, 0.00000000e+00, 0.00000000e+00, 0.00000000e+00, 6.29331787e-03, 9.94544286e-02, 6.72406428e-03, 0.00000000e+00, 6.76095009e-02, 0.00000000e+00, 0.00000000e+00, -1.58975456e+00, 7.89664884e-01, 9.37075638e-01, 3.92220783e+00, 0.00000000e+00, 3.0000000000, 1.0000000000, 0.0260591235
          25, 6.93088435e-02, 1.00507862e-01, 0.00000000e+00, 0.00000000e+00, 0.00000000e+00, 3.22890776e-02, 1.00507862e-01, 6.93088435e-02, 0.00000000e+00, 6.89586287e-01, 0.00000000e+00, 0.00000000e+00, -1.58585340e+00, 7.94737018e-01, 9.40881060e-01, 3.92617646e+00, 0.00000000e+00, 3.0000000000, 1.0000000000, 0.0260591235
          25, -7.95899213e-02, 1.00660594e-01, 0.00000000e+00, 0.00000000e+00, 0.00000000e+00, -3.94642898e-02, 1.00660594e-01, -7.95899213e-02, 0.00000000e+00, -7.90676057e-01, 0.00000000e+00, 0.00000000e+00, -1.58593473e+00, 7.95089354e-01, 9.40704024e-01, 3.92603735e+00, 0.00000000e+00, 3.0000000000, 1.0000000000, 0.0260591235
