TITLE = "Visualization of the surface solution"
VARIABLES = "x","y","Density[0]","Density[1]","Density[2]","Density[3]","Density[4]","Density[5]","Density[6]","Density[7]","Momentum_x","Momentum_y","Energy","Electronic Energy","Total Density","Pressure","Temperature","Tve","Mach","C<sub>p</sub>"
ZONE NODES= 0, ELEMENTS= 0, DATAPACKING=POINT, ZONETYPE=FELINESEG
