TITLE = "Visualization of the solution"
VARIABLES = "x","y","Density_N2","Density_N","Momentum_x","Momentum_y","Energy","Energy_ve","Pressure","Temperature","Temperature_ve","Mach"
ZONE NODES= 36, ELEMENTS= 25, DATAPACKING=POINT, ZONETYPE=FEQUADRILATERAL
0.000000e+00	0.000000e+00	5.923796e-01	2.961894e-01	3.674934e+01	0.000000e+00	1.015538e+07	4.560670e+00	1.013250e+05	2.881500e+02	2.881504e+02	1.000000e-01	
2.000000e-01	0.000000e+00	5.923796e-01	2.961894e-01	3.674934e+01	0.000000e+00	1.015538e+07	4.560670e+00	1.013250e+05	2.881500e+02	2.881504e+02	1.000000e-01	
4.000000e-01	0.000000e+00	5.923796e-01	2.961894e-01	3.674934e+01	1.418764e-14	1.015538e+07	4.560670e+00	1.013250e+05	2.881500e+02	2.881504e+02	1.000000e-01	
6.000000e-01	0.000000e+00	5.923796e-01	2.961894e-01	3.674934e+01	0.000000e+00	1.015538e+07	4.560670e+00	1.013250e+05	2.881500e+02	2.881504e+02	1.000000e-01	
8.000000e-01	0.000000e+00	5.923796e-01	2.961894e-01	3.674934e+01	0.000000e+00	1.015538e+07	4.560670e+00	1.013250e+05	2.881500e+02	2.881504e+02	1.000000e-01	
1.000000e+00	0.000000e+00	5.923796e-01	2.961894e-01	3.674934e+01	0.000000e+00	1.015538e+07	4.560670e+00	1.013250e+05	2.881500e+02	2.881504e+02	1.000000e-01	
0.000000e+00	2.000000e-01	5.923796e-01	2.961894e-01	3.674934e+01	0.000000e+00	1.015538e+07	4.560670e+00	1.013250e+05	2.881500e+02	2.881504e+02	1.000000e-01	
2.000000e-01	2.000000e-01	5.923796e-01	2.961894e-01	3.674934e+01	0.000000e+00	1.015538e+07	4.560670e+00	1.013250e+05	2.881500e+02	2.881504e+02	1.000000e-01	
4.000000e-01	2.000000e-01	5.923796e-01	2.961894e-01	3.674934e+01	0.000000e+00	1.015538e+07	4.560670e+00	1.013250e+05	2.881500e+02	2.881504e+02	1.000000e-01	
6.000000e-01	2.000000e-01	5.923796e-01	2.961894e-01	3.674934e+01	0.000000e+00	1.015538e+07	4.560670e+00	1.013250e+05	2.881500e+02	2.881504e+02	1.000000e-01	
8.000000e-01	2.000000e-01	5.923796e-01	2.961894e-01	3.674934e+01	1.047183e-14	1.015538e+07	4.560670e+00	1.013250e+05	2.881500e+02	2.881504e+02	1.000000e-01	
1.000000e+00	2.000000e-01	5.923796e-01	2.961894e-01	3.674934e+01	0.000000e+00	1.015538e+07	4.560670e+00	1.013250e+05	2.881500e+02	2.881504e+02	1.000000e-01	
0.000000e+00	4.000000e-01	5.923796e-01	2.961894e-01	3.674934e+01	6.872138e-15	1.015538e+07	4.560670e+00	1.013250e+05	2.881500e+02	2.881504e+02	1.000000e-01	
2.000000e-01	4.000000e-01	5.923796e-01	2.961894e-01	3.674934e+01	0.000000e+00	1.015538e+07	4.560670e+00	1.013250e+05	2.881500e+02	2.881504e+02	1.000000e-01	
4.000000e-01	4.000000e-01	5.923796e-01	2.961894e-01	3.674934e+01	0.000000e+00	1.015538e+07	4.560670e+00	1.013250e+05	2.881500e+02	2.881504e+02	1.000000e-01	
6.000000e-01	4.000000e-01	5.923796e-01	2.961894e-01	3.674934e+01	1.047183e-14	1.015538e+07	4.560670e+00	1.013250e+05	2.881500e+02	2.881504e+02	1.000000e-01	
8.000000e-01	4.000000e-01	5.923796e-01	2.961894e-01	3.674934e+01	0.000000e+00	1.015538e+07	4.560670e+00	1.013250e+05	2.881500e+02	2.881504e+02	1.000000e-01	
1.000000e+00	4.000000e-01	5.923796e-01	2.961894e-01	3.674934e+01	0.000000e+00	1.015538e+07	4.560670e+00	1.013250e+05	2.881500e+02	2.881504e+02	1.000000e-01	
0.000000e+00	6.000000e-01	5.923796e-01	2.961894e-01	3.674934e+01	-6.872138e-15	1.015538e+07	4.560670e+00	1.013250e+05	2.881500e+02	2.881504e+02	1.000000e-01	
2.000000e-01	6.000000e-01	5.923796e-01	2.961894e-01	3.674934e+01	0.000000e+00	1.015538e+07	4.560670e+00	1.013250e+05	2.881500e+02	2.881504e+02	1.000000e-01	
4.000000e-01	6.000000e-01	5.923796e-01	2.961894e-01	3.674934e+01	0.000000e+00	1.015538e+07	4.560670e+00	1.013250e+05	2.881500e+02	2.881504e+02	1.000000e-01	
6.000000e-01	6.000000e-01	5.923796e-01	2.961894e-01	3.674934e+01	-1.047183e-14	1.015538e+07	4.560670e+00	1.013250e+05	2.881500e+02	2.881504e+02	1.000000e-01	
8.000000e-01	6.000000e-01	5.923796e-01	2.961894e-01	3.674934e+01	0.000000e+00	1.015538e+07	4.560670e+00	1.013250e+05	2.881500e+02	2.881504e+02	1.000000e-01	
1.000000e+00	6.000000e-01	5.923796e-01	2.961894e-01	3.674934e+01	0.000000e+00	1.015538e+07	4.560670e+00	1.013250e+05	2.881500e+02	2.881504e+02	1.000000e-01	
0.000000e+00	8.000000e-01	5.923796e-01	2.961894e-01	3.674934e+01	0.000000e+00	1.015538e+07	4.560670e+00	1.013250e+05	2.881500e+02	2.881504e+02	1.000000e-01	
2.000000e-01	8.000000e-01	5.923796e-01	2.961894e-01	3.674934e+01	-1.047183e-14	1.015538e+07	4.560670e+00	1.013250e+05	2.881500e+02	2.881504e+02	1.000000e-01	
4.000000e-01	8.000000e-01	5.923796e-01	2.961894e-01	3.674934e+01	0.000000e+00	1.015538e+07	4.560670e+00	1.013250e+05	2.881500e+02	2.881504e+02	1.000000e-01	
6.000000e-01	8.000000e-01	5.923796e-01	2.961894e-01	3.674934e+01	1.047183e-14	1.015538e+07	4.560670e+00	1.013250e+05	2.881500e+02	2.881504e+02	1.000000e-01	
8.000000e-01	8.000000e-01	5.923796e-01	2.961894e-01	3.674934e+01	0.000000e+00	1.015538e+07	4.560670e+00	1.013250e+05	2.881500e+02	2.881504e+02	1.000000e-01	
1.000000e+00	8.000000e-01	5.923796e-01	2.961894e-01	3.674934e+01	0.000000e+00	1.015538e+07	4.560670e+00	1.013250e+05	2.881500e+02	2.881504e+02	1.000000e-01	
0.000000e+00	1.000000e+00	5.923796e-01	2.961894e-01	3.674934e+01	0.000000e+00	1.015538e+07	4.560670e+00	1.013250e+05	2.881500e+02	2.881504e+02	1.000000e-01	
2.000000e-01	1.000000e+00	5.923796e-01	2.961894e-01	3.674934e+01	0.000000e+00	1.015538e+07	4.560670e+00	1.013250e+05	2.881500e+02	2.881504e+02	1.000000e-01	
4.000000e-01	1.000000e+00	5.923796e-01	2.961894e-01	3.674934e+01	0.000000e+00	1.015538e+07	4.560670e+00	1.013250e+05	2.881500e+02	2.881504e+02	1.000000e-01	
6.000000e-01	1.000000e+00	5.923796e-01	2.961894e-01	3.674934e+01	0.000000e+00	1.015538e+07	4.560670e+00	1.013250e+05	2.881500e+02	2.881504e+02	1.000000e-01	
8.000000e-01	1.000000e+00	5.923796e-01	2.961894e-01	3.674934e+01	-1.418764e-14	1.015538e+07	4.560670e+00	1.013250e+05	2.881500e+02	2.881504e+02	1.000000e-01	
1.000000e+00	1.000000e+00	5.923796e-01	2.961894e-01	3.674934e+01	0.000000e+00	1.015538e+07	4.560670e+00	1.013250e+05	2.881500e+02	2.881504e+02	1.000000e-01	
1	2	8	7
2	3	9	8
3	4	10	9
4	5	11	10
5	6	12	11
7	8	14	13
8	9	15	14
9	10	16	15
10	11	17	16
11	12	18	17
13	14	20	19
14	15	21	20
15	16	22	21
16	17	23	22
17	18	24	23
19	20	26	25
20	21	27	26
21	22	28	27
22	23	29	28
23	24	30	29
25	26	32	31
26	27	33	32
27	28	34	33
28	29	35	34
29	30	36	35
