TITLE = "SU2 Simulation"
VARIABLES = "Iteration","CL","CD","CSF","CMx","CMy","CMz","CFx","CFy","CFz","CL/CD","AoA","Custom_ObjFunc","HeatFlux_Total","HeatFlux_Maximum","Temperature_Total","Res_Flow[0]","Res_Flow[1]","Res_Flow[2]","Res_Flow[3]","Res_Flow[4]","Res_Turb[0]","Linear_Solver_Iterations","CFL_Number","Time(min)"
ZONE T= "Convergence history"
           0, 7.09501696e-03, 8.01132983e-02, 0.00000000e+00, 0.00000000e+00, 0.00000000e+00, 5.63302388e-03, 8.01132983e-02, 7.09501696e-03, 0.00000000e+00, 8.85622876e-02, 0.00000000e+00, 0.00000000e+00, -1.74518522e+05, 1.67440187e+05, 0.00000000e+00, -1.47968536e+00, -9.12557856e-01, -1.13984839e+01, 4.03377035e+00, 0.00000000e+00, -5.7594272028, 4.0000000000, 3.0000000000, 0.0149322208
           0, 5.92596785e-02, 8.08764917e-02, 0.00000000e+00, 0.00000000e+00, 0.00000000e+00, 3.15654490e-02, 8.08764917e-02, 5.92596785e-02, 0.00000000e+00, 7.32718213e-01, 0.00000000e+00, 0.00000000e+00, -1.74527031e+05, 1.67445078e+05, 0.00000000e+00, -1.47470008e+00, -1.12039588e+00, -1.14013076e+01, 4.03876678e+00, 0.00000000e+00, -5.7576813888, 4.0000000000, 3.0000000000, 0.0149322208
           0, 6.63862220e-02, 8.11743578e-02, 0.00000000e+00, 0.00000000e+00, 0.00000000e+00, 3.34855222e-02, 8.11743578e-02, 6.63862220e-02, 0.00000000e+00, 8.17822572e-01, 0.00000000e+00, 0.00000000e+00, -1.74524085e+05, 1.67438798e+05, 0.00000000e+00, -1.47337597e+00, -1.54704582e+00, -1.14012147e+01, 4.04009665e+00, 0.00000000e+00, -5.7572453318, 4.0000000000, 3.0000000000, 0.0149322208
           0, 2.29898693e-02, 8.02703977e-02, 0.00000000e+00, 0.00000000e+00, 0.00000000e+00, 9.93786516e-03, 8.02703977e-02, 2.29898693e-02, 0.00000000e+00, 2.86405325e-01, 0.00000000e+00, 0.00000000e+00, -1.74516508e+05, 1.67434606e+05, 0.00000000e+00, -1.47900491e+00, -9.54847178e-01, -1.14063583e+01, 4.03445400e+00, 0.00000000e+00, -5.7592379503, 4.0000000000, 3.0000000000, 0.0149322208
           0, -3.79048481e-02, 8.03921224e-02, 0.00000000e+00, 0.00000000e+00, 0.00000000e+00, -2.11745126e-02, 8.03921224e-02, -3.79048481e-02, 0.00000000e+00, -4.71499532e-01, 0.00000000e+00, 0.00000000e+00, -1.74522861e+05, 1.67445062e+05, 0.00000000e+00, -1.47744527e+00, -9.62027457e-01, -1.13924892e+01, 4.03601422e+00, 0.00000000e+00, -5.7585260274, 4.0000000000, 3.0000000000, 0.0149322208
           0, -6.99335240e-02, 8.12330196e-02, 0.00000000e+00, 0.00000000e+00, 0.00000000e+00, -3.61748829e-02, 8.12330196e-02, -6.99335240e-02, 0.00000000e+00, -8.60900214e-01, 0.00000000e+00, 0.00000000e+00, -1.74526204e+05, 1.67445273e+05, 0.00000000e+00, -1.47218537e+00, -1.61435859e+00, -1.13845245e+01, 4.04128751e+00, 0.00000000e+00, -5.7565464797, 4.0000000000, 3.0000000000, 0.0149322208
           0, -4.88077061e-02, 8.07210663e-02, 0.00000000e+00, 0.00000000e+00, 0.00000000e+00, -2.36634612e-02, 8.07210663e-02, -4.88077061e-02, 0.00000000e+00, -6.04646449e-01, 0.00000000e+00, 0.00000000e+00, -1.74518209e+05, 1.67437087e+05, 0.00000000e+00, -1.47594728e+00, -1.10227050e+00, -1.13876222e+01, 4.03751895e+00, 0.00000000e+00, -5.7579943705, 4.0000000000, 3.0000000000, 0.0149322208
           1, 9.30654364e-03, 1.14591319e-01, 0.00000000e+00, 0.00000000e+00, 0.00000000e+00, 7.59523937e-03, 1.14591319e-01, 9.30654364e-03, 0.00000000e+00, 8.12150842e-02, 0.00000000e+00, 0.00000000e+00, -1.55582833e+05, 1.49567524e+05, 0.00000000e+00, -1.70966051e+00, 9.12738037e-01, 9.73197764e-01, 3.80495684e+00, 0.00000000e+00, -5.9083139013, 4.0000000000, 3.0000000000, 0.0047595412
           1, 8.17330506e-02, 1.15693297e-01, 0.00000000e+00, 0.00000000e+00, 0.00000000e+00, 4.27558050e-02, 1.15693297e-01, 8.17330506e-02, 0.00000000e+00, 7.06463148e-01, 0.00000000e+00, 0.00000000e+00, -1.55577529e+05, 1.49568472e+05, 0.00000000e+00, -1.70470424e+00, 9.15282579e-01, 9.74212286e-01, 3.80978792e+00, 0.00000000e+00, -5.9028439878, 4.0000000000, 3.0000000000, 0.0047595412
           1, 9.20315707e-02, 1.16129420e-01, 0.00000000e+00, 0.00000000e+00, 0.00000000e+00, 4.54081703e-02, 1.16129420e-01, 9.20315707e-02, 0.00000000e+00, 7.92491434e-01, 0.00000000e+00, 0.00000000e+00, -1.55568869e+05, 1.49558956e+05, 0.00000000e+00, -1.70345488e+00, 9.15768623e-01, 9.74419146e-01, 3.81105436e+00, 0.00000000e+00, -5.9016249239, 4.0000000000, 3.0000000000, 0.0047595412
           1, 3.23874793e-02, 1.14836802e-01, 0.00000000e+00, 0.00000000e+00, 0.00000000e+00, 1.35411313e-02, 1.14836802e-01, 3.23874793e-02, 0.00000000e+00, 2.82030487e-01, 0.00000000e+00, 0.00000000e+00, -1.55580528e+05, 1.49570154e+05, 0.00000000e+00, -1.70902817e+00, 9.12983617e-01, 9.73309845e-01, 3.80559724e+00, 0.00000000e+00, -5.9077124797, 4.0000000000, 3.0000000000, 0.0047595412
           1, -5.18749275e-02, 1.14984434e-01, 0.00000000e+00, 0.00000000e+00, 0.00000000e+00, -2.86150721e-02, 1.14984434e-01, -5.18749275e-02, 0.00000000e+00, -4.51147394e-01, 0.00000000e+00, 0.00000000e+00, -1.55580674e+05, 1.49567714e+05, 0.00000000e+00, -1.70741575e+00, 9.14007376e-01, 9.73555053e-01, 3.80713160e+00, 0.00000000e+00, -5.9056276378, 4.0000000000, 3.0000000000, 0.0047595412
           1, -9.66016030e-02, 1.16203606e-01, 0.00000000e+00, 0.00000000e+00, 0.00000000e+00, -4.89819868e-02, 1.16203606e-01, -9.66016030e-02, 0.00000000e+00, -8.31313297e-01, 0.00000000e+00, 0.00000000e+00, -1.55568331e+05, 1.49560619e+05, 0.00000000e+00, -1.70222710e+00, 9.16591998e-01, 9.74454326e-01, 3.81223534e+00, 0.00000000e+00, -5.8998777453, 4.0000000000, 3.0000000000, 0.0047595412
           1, -6.78356337e-02, 1.15478074e-01, 0.00000000e+00, 0.00000000e+00, 0.00000000e+00, -3.20794428e-02, 1.15478074e-01, -6.78356337e-02, 0.00000000e+00, -5.87433020e-01, 0.00000000e+00, 0.00000000e+00, -1.55570951e+05, 1.49559195e+05, 0.00000000e+00, -1.70600086e+00, 9.14517643e-01, 9.73752637e-01, 3.80857569e+00, 0.00000000e+00, -5.9042360251, 4.0000000000, 3.0000000000, 0.0047595412
           2, 9.98655090e-03, 1.38970602e-01, 0.00000000e+00, 0.00000000e+00, 0.00000000e+00, 8.31202274e-03, 1.38970602e-01, 9.98655090e-03, 0.00000000e+00, 7.18608881e-02, 0.00000000e+00, 0.00000000e+00, -1.37637040e+05, 1.32723637e+05, 0.00000000e+00, -1.72700314e+00, 9.19343355e-01, 8.67945324e-01, 3.79302332e+00, 0.00000000e+00, -5.9906181712, 4.0000000000, 3.0000000000, 0.0093300750
           2, 9.02959615e-02, 1.40222162e-01, 0.00000000e+00, 0.00000000e+00, 0.00000000e+00, 4.67184144e-02, 1.40222162e-01, 9.02959615e-02, 0.00000000e+00, 6.43949290e-01, 0.00000000e+00, 0.00000000e+00, -1.37622645e+05, 1.32726058e+05, 0.00000000e+00, -1.72388742e+00, 9.20850636e-01, 8.70156043e-01, 3.79596738e+00, 0.00000000e+00, -5.9866807147, 4.0000000000, 3.0000000000, 0.0093300750
           2, 1.01979971e-01, 1.40725688e-01, 0.00000000e+00, 0.00000000e+00, 0.00000000e+00, 4.96262288e-02, 1.40725688e-01, 1.01979971e-01, 0.00000000e+00, 7.24672039e-01, 0.00000000e+00, 0.00000000e+00, -1.37612936e+05, 1.32721989e+05, 0.00000000e+00, -1.72309127e+00, 9.21168077e-01, 8.70741675e-01, 3.79678563e+00, 0.00000000e+00, -5.9857189660, 4.0000000000, 3.0000000000, 0.0093300750
           2, 3.61462401e-02, 1.39257804e-01, 0.00000000e+00, 0.00000000e+00, 0.00000000e+00, 1.48268904e-02, 1.39257804e-01, 3.61462401e-02, 0.00000000e+00, 2.59563478e-01, 0.00000000e+00, 0.00000000e+00, -1.37633696e+05, 1.32732134e+05, 0.00000000e+00, -1.72661180e+00, 9.19505191e-01, 8.68263657e-01, 3.79342613e+00, 0.00000000e+00, -5.9901634609, 4.0000000000, 3.0000000000, 0.0093300750
           2, -5.71320177e-02, 1.39411365e-01, 0.00000000e+00, 0.00000000e+00, 0.00000000e+00, -3.12157340e-02, 1.39411365e-01, -5.71320177e-02, 0.00000000e+00, -4.09808896e-01, 0.00000000e+00, 0.00000000e+00, -1.37631227e+05, 1.32718964e+05, 0.00000000e+00, -1.72558704e+00, 9.20073959e-01, 8.68792832e-01, 3.79434336e+00, 0.00000000e+00, -5.9886633885, 4.0000000000, 3.0000000000, 0.0093300750
           2, -1.06870648e-01, 1.40798278e-01, 0.00000000e+00, 0.00000000e+00, 0.00000000e+00, -5.34694547e-02, 1.40798278e-01, -1.06870648e-01, 0.00000000e+00, -7.59033768e-01, 0.00000000e+00, 0.00000000e+00, -1.37610855e+05, 1.32707039e+05, 0.00000000e+00, -1.72228063e+00, 9.21618567e-01, 8.70992308e-01, 3.79752939e+00, 0.00000000e+00, -5.9843833679, 4.0000000000, 3.0000000000, 0.0093300750
           2, -7.52880190e-02, 1.39979494e-01, 0.00000000e+00, 0.00000000e+00, 0.00000000e+00, -3.50176363e-02, 1.39979494e-01, -7.52880190e-02, 0.00000000e+00, -5.37850346e-01, 0.00000000e+00, 0.00000000e+00, -1.37620199e+05, 1.32710033e+05, 0.00000000e+00, -1.72467683e+00, 9.20408730e-01, 8.69436292e-01, 3.79529083e+00, 0.00000000e+00, -5.9875437439, 4.0000000000, 3.0000000000, 0.0093300750
           3, 9.77184922e-03, 1.53571913e-01, 0.00000000e+00, 0.00000000e+00, 0.00000000e+00, 8.21039670e-03, 1.53571913e-01, 9.77184922e-03, 0.00000000e+00, 6.36304454e-02, 0.00000000e+00, 0.00000000e+00, -1.22155162e+05, 1.18140123e+05, 0.00000000e+00, -1.72417795e+00, 8.96409976e-01, 7.23037403e-01, 3.79814071e+00, 0.00000000e+00, -5.9651986394, 4.0000000000, 3.0000000000, 0.0138872453
           3, 8.99656463e-02, 1.54829244e-01, 0.00000000e+00, 0.00000000e+00, 0.00000000e+00, 4.61383580e-02, 1.54829244e-01, 8.99656463e-02, 0.00000000e+00, 5.81063656e-01, 0.00000000e+00, 0.00000000e+00, -1.22138411e+05, 1.18136246e+05, 0.00000000e+00, -1.72186516e+00, 8.97595801e-01, 7.26799213e-01, 3.80038173e+00, 0.00000000e+00, -5.9615803830, 4.0000000000, 3.0000000000, 0.0138872453
           3, 1.01817992e-01, 1.55345542e-01, 0.00000000e+00, 0.00000000e+00, 0.00000000e+00, 4.90300415e-02, 1.55345542e-01, 1.01817992e-01, 0.00000000e+00, 6.55429121e-01, 0.00000000e+00, 0.00000000e+00, -1.22129561e+05, 1.18133020e+05, 0.00000000e+00, -1.72128338e+00, 8.97849236e-01, 7.27949881e-01, 3.80101057e+00, 0.00000000e+00, -5.9606576732, 4.0000000000, 3.0000000000, 0.0138872453
           3, 3.63133533e-02, 1.53861651e-01, 0.00000000e+00, 0.00000000e+00, 0.00000000e+00, 1.46867042e-02, 1.53861651e-01, 3.63133533e-02, 0.00000000e+00, 2.36013023e-01, 0.00000000e+00, 0.00000000e+00, -1.22151578e+05, 1.18148198e+05, 0.00000000e+00, -1.72389154e+00, 8.96543042e-01, 7.23649408e-01, 3.79845167e+00, 0.00000000e+00, -5.9647621240, 4.0000000000, 3.0000000000, 0.0138872453
           3, -5.67124379e-02, 1.54013639e-01, 0.00000000e+00, 0.00000000e+00, 0.00000000e+00, -3.07716706e-02, 1.54013639e-01, -5.67124379e-02, 0.00000000e+00, -3.68229972e-01, 0.00000000e+00, 0.00000000e+00, -1.22148518e+05, 1.18131207e+05, 0.00000000e+00, -1.72316892e+00, 8.96952171e-01, 7.24549898e-01, 3.79909861e+00, 0.00000000e+00, -5.9634322258, 4.0000000000, 3.0000000000, 0.0138872453
           3, -1.06482791e-01, 1.55422445e-01, 0.00000000e+00, 0.00000000e+00, 0.00000000e+00, -5.27602618e-02, 1.55422445e-01, -1.06482791e-01, 0.00000000e+00, -6.85118494e-01, 0.00000000e+00, 0.00000000e+00, -1.22128036e+05, 1.18117235e+05, 0.00000000e+00, -1.72076133e+00, 8.98143369e-01, 7.28542090e-01, 3.80148785e+00, 0.00000000e+00, -5.9594345213, 4.0000000000, 3.0000000000, 0.0138872453
           3, -7.51806485e-02, 1.54596209e-01, 0.00000000e+00, 0.00000000e+00, 0.00000000e+00, -3.45619322e-02, 1.54596209e-01, -7.51806485e-02, 0.00000000e+00, -4.86303314e-01, 0.00000000e+00, 0.00000000e+00, -1.22138797e+05, 1.18122905e+05, 0.00000000e+00, -1.72251054e+00, 8.97219838e-01, 7.25870159e-01, 3.79982146e+00, 0.00000000e+00, -5.9623189068, 4.0000000000, 3.0000000000, 0.0138872453
           4, 9.18702575e-03, 1.57290725e-01, 0.00000000e+00, 0.00000000e+00, 0.00000000e+00, 7.72680259e-03, 1.57290725e-01, 9.18702575e-03, 0.00000000e+00, 5.84079307e-02, 0.00000000e+00, 0.00000000e+00, -1.09661089e+05, 1.06019580e+05, 0.00000000e+00, -1.76415763e+00, 8.39977245e-01, 6.39733938e-01, 3.75877800e+00, 0.00000000e+00, -5.9831536804, 5.0000000000, 3.0000000000, 0.0185472092
           4, 8.52357426e-02, 1.58476479e-01, 0.00000000e+00, 0.00000000e+00, 0.00000000e+00, 4.34161584e-02, 1.58476479e-01, 8.52357426e-02, 0.00000000e+00, 5.37844754e-01, 0.00000000e+00, 0.00000000e+00, -1.09646391e+05, 1.06004318e+05, 0.00000000e+00, -1.76162621e+00, 8.41191368e-01, 6.44109042e-01, 3.76128164e+00, 0.00000000e+00, -5.9792280361, 5.0000000000, 3.0000000000, 0.0185472092
           4, 9.65845384e-02, 1.58971360e-01, 0.00000000e+00, 0.00000000e+00, 0.00000000e+00, 4.61547369e-02, 1.58971360e-01, 9.65845384e-02, 0.00000000e+00, 6.07559364e-01, 0.00000000e+00, 0.00000000e+00, -1.09639351e+05, 1.05999626e+05, 0.00000000e+00, -1.76096945e+00, 8.41445867e-01, 6.45554536e-01, 3.76200704e+00, 0.00000000e+00, -5.9782040756, 5.0000000000, 3.0000000000, 0.0185472092
           4, 3.46048047e-02, 1.57560093e-01, 0.00000000e+00, 0.00000000e+00, 0.00000000e+00, 1.38593758e-02, 1.57560093e-01, 3.46048047e-02, 0.00000000e+00, 2.19629247e-01, 0.00000000e+00, 0.00000000e+00, -1.09657436e+05, 1.06019084e+05, 0.00000000e+00, -1.76382343e+00, 8.40109764e-01, 6.40476814e-01, 3.75915048e+00, 0.00000000e+00, -5.9826168478, 5.0000000000, 3.0000000000, 0.0185472092
           4, -5.35480339e-02, 1.57710269e-01, 0.00000000e+00, 0.00000000e+00, 0.00000000e+00, -2.89062628e-02, 1.57710269e-01, -5.35480339e-02, 0.00000000e+00, -3.39534225e-01, 0.00000000e+00, 0.00000000e+00, -1.09655738e+05, 1.06010946e+05, 0.00000000e+00, -1.76308683e+00, 8.40514075e-01, 6.41542399e-01, 3.75981375e+00, 0.00000000e+00, -5.9813957104, 5.0000000000, 3.0000000000, 0.0185472092
           4, -1.00812310e-01, 1.59055552e-01, 0.00000000e+00, 0.00000000e+00, 0.00000000e+00, -4.96076828e-02, 1.59055552e-01, -1.00812310e-01, 0.00000000e+00, -6.33818237e-01, 0.00000000e+00, 0.00000000e+00, -1.09639693e+05, 1.05996235e+05, 0.00000000e+00, -1.76046946e+00, 8.41721313e-01, 6.46378762e-01, 3.76246510e+00, 0.00000000e+00, -5.9772681522, 5.0000000000, 3.0000000000, 0.0185472092
           4, -7.12653291e-02, 1.58270050e-01, 0.00000000e+00, 0.00000000e+00, 0.00000000e+00, -3.25046819e-02, 1.58270050e-01, -7.12653291e-02, 0.00000000e+00, -4.50276783e-01, 0.00000000e+00, 0.00000000e+00, -1.09648384e+05, 1.06002510e+05, 0.00000000e+00, -1.76234416e+00, 8.40788235e-01, 6.43239568e-01, 3.76064661e+00, 0.00000000e+00, -5.9802400193, 5.0000000000, 3.0000000000, 0.0185472092
           5, 8.55094463e-03, 1.53749061e-01, 0.00000000e+00, 0.00000000e+00, 0.00000000e+00, 7.17866543e-03, 1.53749061e-01, 8.55094463e-03, 0.00000000e+00, 5.56162397e-02, 0.00000000e+00, 0.00000000e+00, -1.00182248e+05, 9.66508270e+04, 0.00000000e+00, -1.82833283e+00, 7.61144069e-01, 6.44431037e-01, 3.69564678e+00, 0.00000000e+00, -5.9724583133, 5.0000000000, 3.0000000000, 0.0239575043
           5, 7.95219323e-02, 1.54849158e-01, 0.00000000e+00, 0.00000000e+00, 0.00000000e+00, 4.02857265e-02, 1.54849158e-01, 7.95219323e-02, 0.00000000e+00, 5.13544494e-01, 0.00000000e+00, 0.00000000e+00, -1.00172464e+05, 9.66404055e+04, 0.00000000e+00, -1.82521793e+00, 7.62578778e-01, 6.48162077e-01, 3.69868583e+00, 0.00000000e+00, -5.9691048594, 5.0000000000, 3.0000000000, 0.0239575043
           5, 9.01620697e-02, 1.55310683e-01, 0.00000000e+00, 0.00000000e+00, 0.00000000e+00, 4.28307385e-02, 1.55310683e-01, 9.01620697e-02, 0.00000000e+00, 5.80527161e-01, 0.00000000e+00, 0.00000000e+00, -1.00167418e+05, 9.66346781e+04, 0.00000000e+00, -1.82438374e+00, 7.62861564e-01, 6.49449672e-01, 3.69959004e+00, 0.00000000e+00, -5.9681915211, 5.0000000000, 3.0000000000, 0.0239575043
           5, 3.23842631e-02, 1.53997180e-01, 0.00000000e+00, 0.00000000e+00, 0.00000000e+00, 1.28781872e-02, 1.53997180e-01, 3.23842631e-02, 0.00000000e+00, 2.10291274e-01, 0.00000000e+00, 0.00000000e+00, -1.00179374e+05, 9.66481998e+04, 0.00000000e+00, -1.82790398e+00, 7.61282038e-01, 6.45084468e-01, 3.69611611e+00, 0.00000000e+00, -5.9720024318, 5.0000000000, 3.0000000000, 0.0239575043
           5, -4.98556088e-02, 1.54139670e-01, 0.00000000e+00, 0.00000000e+00, 0.00000000e+00, -2.67900502e-02, 1.54139670e-01, -4.98556088e-02, 0.00000000e+00, -3.23444373e-01, 0.00000000e+00, 0.00000000e+00, -1.00178917e+05, 9.66456136e+04, 0.00000000e+00, -1.82701083e+00, 7.61783409e-01, 6.45967514e-01, 3.69690897e+00, 0.00000000e+00, -5.9709586944, 5.0000000000, 3.0000000000, 0.0239575043
           5, -9.39948068e-02, 1.55394215e-01, 0.00000000e+00, 0.00000000e+00, 0.00000000e+00, -4.59966649e-02, 1.55394215e-01, -9.39948068e-02, 0.00000000e+00, -6.04879706e-01, 0.00000000e+00, 0.00000000e+00, -1.00168799e+05, 9.66343665e+04, 0.00000000e+00, -1.82375909e+00, 7.63208905e-01, 6.50147733e-01, 3.70015626e+00, 0.00000000e+00, -5.9673716273, 5.0000000000, 3.0000000000, 0.0239575043
           5, -6.64821660e-02, 1.54662888e-01, 0.00000000e+00, 0.00000000e+00, 0.00000000e+00, -3.01367468e-02, 1.54662888e-01, -6.64821660e-02, 0.00000000e+00, -4.29852093e-01, 0.00000000e+00, 0.00000000e+00, -1.00173946e+05, 9.66368535e+04, 0.00000000e+00, -1.82605909e+00, 7.62092704e-01, 6.47483645e-01, 3.69795496e+00, 0.00000000e+00, -5.9699153647, 5.0000000000, 3.0000000000, 0.0239575043
           6, 8.05209738e-03, 1.47891734e-01, 0.00000000e+00, 0.00000000e+00, 0.00000000e+00, 6.74774740e-03, 1.47891734e-01, 8.05209738e-03, 0.00000000e+00, 5.44458919e-02, 0.00000000e+00, 0.00000000e+00, -9.33198580e+04, 9.00300914e+04, 0.00000000e+00, -1.87917523e+00, 6.78844170e-01, 6.54512342e-01, 3.64687474e+00, 0.00000000e+00, -5.9442156108, 5.0000000000, 3.0000000000, 0.0288771899
           6, 7.48073454e-02, 1.48920103e-01, 0.00000000e+00, 0.00000000e+00, 0.00000000e+00, 3.77220787e-02, 1.48920103e-01, 7.48073454e-02, 0.00000000e+00, 5.02332082e-01, 0.00000000e+00, 0.00000000e+00, -9.33150505e+04, 9.00314727e+04, 0.00000000e+00, -1.87565050e+00, 6.80676075e-01, 6.57844529e-01, 3.65022585e+00, 0.00000000e+00, -5.9415683926, 5.0000000000, 3.0000000000, 0.0288771899
           6, 8.48183341e-02, 1.49352385e-01, 0.00000000e+00, 0.00000000e+00, 0.00000000e+00, 4.00861099e-02, 1.49352385e-01, 8.48183341e-02, 0.00000000e+00, 5.67907463e-01, 0.00000000e+00, 0.00000000e+00, -9.33117797e+04, 9.00257372e+04, 0.00000000e+00, -1.87467131e+00, 6.81025097e-01, 6.59018747e-01, 3.65125240e+00, 0.00000000e+00, -5.9408337354, 5.0000000000, 3.0000000000, 0.0288771899
           6, 3.04813935e-02, 1.48122492e-01, 0.00000000e+00, 0.00000000e+00, 0.00000000e+00, 1.20432394e-02, 1.48122492e-01, 3.04813935e-02, 0.00000000e+00, 2.05785044e-01, 0.00000000e+00, 0.00000000e+00, -9.33177468e+04, 9.00269755e+04, 0.00000000e+00, -1.87868611e+00, 6.79011954e-01, 6.55110728e-01, 3.64738904e+00, 0.00000000e+00, -5.9438538509, 5.0000000000, 3.0000000000, 0.0288771899
           6, -4.68742405e-02, 1.48258087e-01, 0.00000000e+00, 0.00000000e+00, 0.00000000e+00, -2.50780368e-02, 1.48258087e-01, -4.68742405e-02, 0.00000000e+00, -3.16166499e-01, 0.00000000e+00, 0.00000000e+00, -9.33185178e+04, 9.00301973e+04, 0.00000000e+00, -1.87765502e+00, 6.79667379e-01, 6.55869051e-01, 3.64829405e+00, 0.00000000e+00, -5.9430419022, 5.0000000000, 3.0000000000, 0.0288771899
           6, -8.83970176e-02, 1.49431813e-01, 0.00000000e+00, 0.00000000e+00, 0.00000000e+00, -4.30378430e-02, 1.49431813e-01, -8.83970176e-02, 0.00000000e+00, -5.91554207e-01, 0.00000000e+00, 0.00000000e+00, -9.33138281e+04, 9.00266436e+04, 0.00000000e+00, -1.87389968e+00, 6.81478466e-01, 6.59612425e-01, 3.65195324e+00, 0.00000000e+00, -5.9401946680, 5.0000000000, 3.0000000000, 0.0288771899
           6, -6.25234406e-02, 1.48747592e-01, 0.00000000e+00, 0.00000000e+00, 0.00000000e+00, -2.81787431e-02, 1.48747592e-01, -6.25234406e-02, 0.00000000e+00, -4.20332457e-01, 0.00000000e+00, 0.00000000e+00, -9.33154713e+04, 9.00217105e+04, 0.00000000e+00, -1.87652074e+00, 6.80046105e-01, 6.57254238e-01, 3.64950041e+00, 0.00000000e+00, -5.9421999650, 5.0000000000, 3.0000000000, 0.0288771899
           7, 7.74600252e-03, 1.42868529e-01, 0.00000000e+00, 0.00000000e+00, 0.00000000e+00, 6.49527384e-03, 1.42868529e-01, 7.74600252e-03, 0.00000000e+00, 5.42176963e-02, 0.00000000e+00, 0.00000000e+00, -8.83798199e+04, 8.53713163e+04, 0.00000000e+00, -1.90406326e+00, 6.16469763e-01, 6.42896451e-01, 3.62220950e+00, 0.00000000e+00, -5.9286017601, 5.0000000000, 3.0000000000, 0.0337919307
           7, 7.17748397e-02, 1.43850779e-01, 0.00000000e+00, 0.00000000e+00, 0.00000000e+00, 3.60635824e-02, 1.43850779e-01, 7.17748397e-02, 0.00000000e+00, 4.98953431e-01, 0.00000000e+00, 0.00000000e+00, -8.83790684e+04, 8.53839044e+04, 0.00000000e+00, -1.90048722e+00, 6.18731603e-01, 6.46179030e-01, 3.62557944e+00, 0.00000000e+00, -5.9264504674, 5.0000000000, 3.0000000000, 0.0337919307
           7, 8.13474418e-02, 1.44263265e-01, 0.00000000e+00, 0.00000000e+00, 0.00000000e+00, 3.82809163e-02, 1.44263265e-01, 8.13474418e-02, 0.00000000e+00, 5.63881884e-01, 0.00000000e+00, 0.00000000e+00, -8.83770885e+04, 8.53785458e+04, 0.00000000e+00, -1.89945721e+00, 6.19174080e-01, 6.47351106e-01, 3.62663979e+00, 0.00000000e+00, -5.9258747592, 5.0000000000, 3.0000000000, 0.0337919307
           7, 2.91977733e-02, 1.43088447e-01, 0.00000000e+00, 0.00000000e+00, 0.00000000e+00, 1.14636770e-02, 1.43088447e-01, 2.91977733e-02, 0.00000000e+00, 2.04054024e-01, 0.00000000e+00, 0.00000000e+00, -8.83783394e+04, 8.53683676e+04, 0.00000000e+00, -1.90355645e+00, 6.16685664e-01, 6.43491304e-01, 3.62272994e+00, 0.00000000e+00, -5.9282980831, 5.0000000000, 3.0000000000, 0.0337919307
           7, -4.50182380e-02, 1.43219424e-01, 0.00000000e+00, 0.00000000e+00, 0.00000000e+00, -2.39931754e-02, 1.43219424e-01, -4.50182380e-02, 0.00000000e+00, -3.14330533e-01, 0.00000000e+00, 0.00000000e+00, -8.83800865e+04, 8.53762248e+04, 0.00000000e+00, -1.90251094e+00, 6.17489160e-01, 6.44231729e-01, 3.62365029e+00, 0.00000000e+00, -5.9276442252, 5.0000000000, 3.0000000000, 0.0337919307
           7, -8.48318844e-02, 1.44338305e-01, 0.00000000e+00, 0.00000000e+00, 0.00000000e+00, -4.11151436e-02, 1.44338305e-01, -8.48318844e-02, 0.00000000e+00, -5.87729530e-01, 0.00000000e+00, 0.00000000e+00, -8.83794666e+04, 8.53806401e+04, 0.00000000e+00, -1.89863625e+00, 6.19730151e-01, 6.47945590e-01, 3.62739376e+00, 0.00000000e+00, -5.9253951743, 5.0000000000, 3.0000000000, 0.0337919307
           7, -5.99790188e-02, 1.43685601e-01, 0.00000000e+00, 0.00000000e+00, 0.00000000e+00, -2.68820294e-02, 1.43685601e-01, -5.99790188e-02, 0.00000000e+00, -4.17432354e-01, 0.00000000e+00, 0.00000000e+00, -8.83783874e+04, 8.53684434e+04, 0.00000000e+00, -1.90130127e+00, 6.17966587e-01, 6.45624445e-01, 3.62491446e+00, 0.00000000e+00, -5.9269249021, 5.0000000000, 3.0000000000, 0.0337919307
           8, 7.61754253e-03, 1.39778924e-01, 0.00000000e+00, 0.00000000e+00, 0.00000000e+00, 6.40196513e-03, 1.39778924e-01, 7.61754253e-03, 0.00000000e+00, 5.44970752e-02, 0.00000000e+00, 0.00000000e+00, -8.46397875e+04, 8.18293683e+04, 0.00000000e+00, -1.91609909e+00, 5.79955483e-01, 6.19830217e-01, 3.60835360e+00, 0.00000000e+00, -5.9342122018, 5.0000000000, 3.0000000000, 0.0386906102
           8, 7.02835797e-02, 1.40736150e-01, 0.00000000e+00, 0.00000000e+00, 0.00000000e+00, 3.52252903e-02, 1.40736150e-01, 7.02835797e-02, 0.00000000e+00, 4.99399619e-01, 0.00000000e+00, 0.00000000e+00, -8.46396584e+04, 8.18437175e+04, 0.00000000e+00, -1.91260937e+00, 5.82529976e-01, 6.23196266e-01, 3.61166639e+00, 0.00000000e+00, -5.9322823454, 5.0000000000, 3.0000000000, 0.0386906102
           8, 7.96018763e-02, 1.41137464e-01, 0.00000000e+00, 0.00000000e+00, 0.00000000e+00, 3.73302896e-02, 1.41137464e-01, 7.96018763e-02, 0.00000000e+00, 5.64002456e-01, 0.00000000e+00, 0.00000000e+00, -8.46378855e+04, 8.18377376e+04, 0.00000000e+00, -1.91157419e+00, 5.83059905e-01, 6.24417056e-01, 3.61273082e+00, 0.00000000e+00, -5.9317216439, 5.0000000000, 3.0000000000, 0.0386906102
           8, 2.85087315e-02, 1.39993004e-01, 0.00000000e+00, 0.00000000e+00, 0.00000000e+00, 1.11251128e-02, 1.39993004e-01, 2.85087315e-02, 0.00000000e+00, 2.03643974e-01, 0.00000000e+00, 0.00000000e+00, -8.46381137e+04, 8.18251335e+04, 0.00000000e+00, -1.91559441e+00, 5.80220851e-01, 6.20442193e-01, 3.60887299e+00, 0.00000000e+00, -5.9339456202, 5.0000000000, 3.0000000000, 0.0386906102
           8, -4.41654907e-02, 1.40121335e-01, 0.00000000e+00, 0.00000000e+00, 0.00000000e+00, -2.34740870e-02, 1.40121335e-01, -4.41654907e-02, 0.00000000e+00, -3.15194618e-01, 0.00000000e+00, 0.00000000e+00, -8.46401741e+04, 8.18346906e+04, 0.00000000e+00, -1.91458262e+00, 5.81116278e-01, 6.21206346e-01, 3.60977141e+00, 0.00000000e+00, -5.9333612129, 5.0000000000, 3.0000000000, 0.0386906102
           8, -8.31023065e-02, 1.41209387e-01, 0.00000000e+00, 0.00000000e+00, 0.00000000e+00, -4.01299531e-02, 1.41209387e-01, -8.31023065e-02, 0.00000000e+00, -5.88504123e-01, 0.00000000e+00, 0.00000000e+00, -8.46403539e+04, 8.18406391e+04, 0.00000000e+00, -1.91076078e+00, 5.83690934e-01, 6.25057492e-01, 3.61348423e+00, 0.00000000e+00, -5.9312445845, 5.0000000000, 3.0000000000, 0.0386906102
           8, -5.87199132e-02, 1.40574045e-01, 0.00000000e+00, 0.00000000e+00, 0.00000000e+00, -2.61889922e-02, 1.40574045e-01, -5.87199132e-02, 0.00000000e+00, -4.17715185e-01, 0.00000000e+00, 0.00000000e+00, -8.46384880e+04, 8.18260947e+04, 0.00000000e+00, -1.91335936e+00, 5.81693206e-01, 6.22668743e-01, 3.61104789e+00, 0.00000000e+00, -5.9327098611, 5.0000000000, 3.0000000000, 0.0386906102
           9, 7.61131440e-03, 1.38370173e-01, 0.00000000e+00, 0.00000000e+00, 0.00000000e+00, 6.41380105e-03, 1.38370173e-01, 7.61131440e-03, 0.00000000e+00, 5.50069011e-02, 0.00000000e+00, 0.00000000e+00, -8.15190385e+04, 7.87962695e+04, 0.00000000e+00, -1.92403791e+00, 5.61978423e-01, 5.98024686e-01, 3.59920848e+00, 0.00000000e+00, -5.9557146945, 5.0000000000, 3.0000000000, 0.0436351039
           9, 6.98539070e-02, 1.39321588e-01, 0.00000000e+00, 0.00000000e+00, 0.00000000e+00, 3.49625562e-02, 1.39321588e-01, 6.98539070e-02, 0.00000000e+00, 5.01386097e-01, 0.00000000e+00, 0.00000000e+00, -8.15196903e+04, 7.88111674e+04, 0.00000000e+00, -1.92066019e+00, 5.64674136e-01, 6.01462529e-01, 3.60242139e+00, 0.00000000e+00, -5.9536328127, 5.0000000000, 3.0000000000, 0.0436351039
           9, 7.90509655e-02, 1.39719288e-01, 0.00000000e+00, 0.00000000e+00, 0.00000000e+00, 3.69863504e-02, 1.39719288e-01, 7.90509655e-02, 0.00000000e+00, 5.65784199e-01, 0.00000000e+00, 0.00000000e+00, -8.15179929e+04, 7.88051716e+04, 0.00000000e+00, -1.91963557e+00, 5.65250339e-01, 6.02732587e-01, 3.60346970e+00, 0.00000000e+00, -5.9529972164, 5.0000000000, 3.0000000000, 0.0436351039
           9, 2.82307513e-02, 1.38582850e-01, 0.00000000e+00, 0.00000000e+00, 0.00000000e+00, 1.09550068e-02, 1.38582850e-01, 2.82307513e-02, 0.00000000e+00, 2.03710281e-01, 0.00000000e+00, 0.00000000e+00, -8.15173997e+04, 7.87920327e+04, 0.00000000e+00, -1.92354359e+00, 5.62270399e-01, 5.98652674e-01, 3.59971027e+00, 0.00000000e+00, -5.9554101142, 5.0000000000, 3.0000000000, 0.0436351039
           9, -4.39859140e-02, 1.38711217e-01, 0.00000000e+00, 0.00000000e+00, 0.00000000e+00, -2.33466211e-02, 1.38711217e-01, -4.39859140e-02, 0.00000000e+00, -3.17104233e-01, 0.00000000e+00, 0.00000000e+00, -8.15197674e+04, 7.88019815e+04, 0.00000000e+00, -1.92256485e+00, 5.63196058e-01, 5.99438441e-01, 3.60059396e+00, 0.00000000e+00, -5.9548036158, 5.0000000000, 3.0000000000, 0.0436351039
           9, -8.26273324e-02, 1.39789905e-01, 0.00000000e+00, 0.00000000e+00, 0.00000000e+00, -3.98088280e-02, 1.39789905e-01, -8.26273324e-02, 0.00000000e+00, -5.91082258e-01, 0.00000000e+00, 0.00000000e+00, -8.15204629e+04, 7.88083421e+04, 0.00000000e+00, -1.91882632e+00, 5.65914667e-01, 6.03416058e-01, 3.60423456e+00, 0.00000000e+00, -5.9524900417, 5.0000000000, 3.0000000000, 0.0436351039
           9, -5.83359502e-02, 1.39159428e-01, 0.00000000e+00, 0.00000000e+00, 0.00000000e+00, -2.59241939e-02, 1.39159428e-01, -5.83359502e-02, 0.00000000e+00, -4.19202286e-01, 0.00000000e+00, 0.00000000e+00, -8.15181119e+04, 7.87935059e+04, 0.00000000e+00, -1.92134489e+00, 5.63829378e-01, 6.00969446e-01, 3.60186098e+00, 0.00000000e+00, -5.9540578695, 5.0000000000, 3.0000000000, 0.0436351039
          10, 7.67178798e-03, 1.37949488e-01, 0.00000000e+00, 0.00000000e+00, 0.00000000e+00, 6.47809294e-03, 1.37949488e-01, 7.67178798e-03, 0.00000000e+00, 5.56130224e-02, 0.00000000e+00, 0.00000000e+00, -7.86630829e+04, 7.59808679e+04, 0.00000000e+00, -1.93097157e+00, 5.57254112e-01, 5.82143458e-01, 3.59188130e+00, 0.00000000e+00, -5.9771405303, 5.0000000000, 3.0000000000, 0.0485521367
          10, 7.00521076e-02, 1.38904804e-01, 0.00000000e+00, 0.00000000e+00, 0.00000000e+00, 3.50627144e-02, 1.38904804e-01, 7.00521076e-02, 0.00000000e+00, 5.04317387e-01, 0.00000000e+00, 0.00000000e+00, -7.86644367e+04, 7.59952655e+04, 0.00000000e+00, -1.92768683e+00, 5.59835799e-01, 5.85595700e-01, 3.59500510e+00, 0.00000000e+00, -5.9749316143, 5.0000000000, 3.0000000000, 0.0485521367
          10, 7.92177431e-02, 1.39303362e-01, 0.00000000e+00, 0.00000000e+00, 0.00000000e+00, 3.70400310e-02, 1.39303362e-01, 7.92177431e-02, 0.00000000e+00, 5.68670718e-01, 0.00000000e+00, 0.00000000e+00, -7.86629172e+04, 7.59896176e+04, 0.00000000e+00, -1.92667239e+00, 5.60376993e-01, 5.86892453e-01, 3.59603692e+00, 0.00000000e+00, -5.9742404465, 5.0000000000, 3.0000000000, 0.0485521367
          10, 2.82174134e-02, 1.38162808e-01, 0.00000000e+00, 0.00000000e+00, 0.00000000e+00, 1.09133483e-02, 1.38162808e-01, 2.82174134e-02, 0.00000000e+00, 2.04233063e-01, 0.00000000e+00, 0.00000000e+00, -7.86614288e+04, 7.59766889e+04, 0.00000000e+00, -1.93048407e+00, 5.57530829e-01, 5.82781385e-01, 3.59237094e+00, 0.00000000e+00, -5.9768071302, 5.0000000000, 3.0000000000, 0.0485521367
          10, -4.41859546e-02, 1.38292681e-01, 0.00000000e+00, 0.00000000e+00, 0.00000000e+00, -2.34557751e-02, 1.38292681e-01, -4.41859546e-02, 0.00000000e+00, -3.19510435e-01, 0.00000000e+00, 0.00000000e+00, -7.86639727e+04, 7.59862738e+04, 0.00000000e+00, -1.92953598e+00, 5.58442112e-01, 5.83565216e-01, 3.59323394e+00, 0.00000000e+00, -5.9761779982, 5.0000000000, 3.0000000000, 0.0485521367