TITLE = "Visualization of the surface solution"
VARIABLES = "x","y","Density[0]","Density[1]","Momentum_x","Momentum_y","Energy","Electronic Energy","Total Density","Pressure","Temperature","Tve","Mach","C<sub>p</sub>","<greek>m</greek>","C<sub>f</sub>_x","C<sub>f</sub>_y","h"
ZONE NODES= 0, ELEMENTS= 0, DATAPACKING=POINT, ZONETYPE=FELINESEG
