TITLE = "Visualization of the surface solution"
VARIABLES = "x","y","Density[0]","Density[1]","Momentum_x","Momentum_y","Energy","Electronic_Energy","Total_Density","Pressure","Temperature","Tve","Mach","C<sub>p</sub>"
ZONE STRANDID=5009, SOLUTIONTIME=5.008e-05, NODES= 0, ELEMENTS= 0, DATAPACKING=POINT, ZONETYPE=FELINESEG
