TITLE = "Visualization of the volumetric solution"
VARIABLES = "x","y","Density[0]","Density[1]","Momentum_x","Momentum_y","Energy","Electronic_Energy","Total_Density","Pressure","Temperature","Tve","Mach","C<sub>p</sub>"
ZONE STRANDID=6721, SOLUTIONTIME=6.72e-05, NODES= 36, ELEMENTS= 25, DATAPACKING=POINT, ZONETYPE=FEQUADRILATERAL
0.000000e+00	0.000000e+00	1.945875e-03	6.588830e-03	0.000000e+00	0.000000e+00	2.957835e+05	1.553090e+04	8.534705e-03	3.778066e+04	8.416819e+03	8.581902e+03	0.000000e+00	-inf	
2.000000e-01	0.000000e+00	1.945875e-03	6.588830e-03	0.000000e+00	1.225089e-15	2.957835e+05	1.553090e+04	8.534705e-03	3.778066e+04	8.416819e+03	8.581902e+03	5.370159e-17	-inf	
4.000000e-01	0.000000e+00	1.945875e-03	6.588830e-03	0.000000e+00	-9.390533e-16	2.957835e+05	1.553090e+04	8.534705e-03	3.778066e+04	8.416819e+03	8.581902e+03	4.116325e-17	-inf	
6.000000e-01	0.000000e+00	1.945875e-03	6.588830e-03	0.000000e+00	-7.348717e-16	2.957835e+05	1.553090e+04	8.534705e-03	3.778066e+04	8.416819e+03	8.581902e+03	3.221298e-17	-inf	
8.000000e-01	0.000000e+00	1.945875e-03	6.588830e-03	1.725766e-16	0.000000e+00	2.957835e+05	1.553090e+04	8.534705e-03	3.778066e+04	8.416819e+03	8.581902e+03	7.564868e-18	-inf	
1.000000e+00	0.000000e+00	1.945875e-03	6.588830e-03	2.723937e-16	1.409717e-17	2.957835e+05	1.553090e+04	8.534705e-03	3.778066e+04	8.416819e+03	8.581902e+03	1.195631e-17	-inf	
0.000000e+00	2.000000e-01	1.945875e-03	6.588830e-03	0.000000e+00	0.000000e+00	2.957835e+05	1.553090e+04	8.534705e-03	3.778066e+04	8.416819e+03	8.581902e+03	0.000000e+00	-inf	
2.000000e-01	2.000000e-01	1.945875e-03	6.588830e-03	-5.281890e-16	-1.818989e-18	2.957835e+05	1.553090e+04	8.534705e-03	3.778066e+04	8.416819e+03	8.581902e+03	2.315322e-17	-inf	
4.000000e-01	2.000000e-01	1.945875e-03	6.588830e-03	-6.116352e-16	1.743956e-16	2.957835e+05	1.553090e+04	8.534705e-03	3.778066e+04	8.416819e+03	8.581902e+03	2.787949e-17	-inf	
6.000000e-01	2.000000e-01	1.945875e-03	6.588830e-03	0.000000e+00	5.484253e-16	2.957835e+05	1.553090e+04	8.534705e-03	3.778066e+04	8.416819e+03	8.581902e+03	2.404013e-17	-inf	
8.000000e-01	2.000000e-01	1.945875e-03	6.588830e-03	1.605258e-16	-3.785772e-16	2.957835e+05	1.553090e+04	8.534705e-03	3.778066e+04	8.416819e+03	8.581902e+03	1.802509e-17	-inf	
1.000000e+00	2.000000e-01	1.945875e-03	6.588830e-03	2.760316e-16	-1.355147e-16	2.957835e+05	1.553090e+04	8.534705e-03	3.778066e+04	8.416819e+03	8.581902e+03	1.347932e-17	-inf	
0.000000e+00	4.000000e-01	1.945875e-03	6.588830e-03	-1.266017e-15	0.000000e+00	2.957835e+05	1.553090e+04	8.534705e-03	3.778066e+04	8.416819e+03	8.581902e+03	5.549563e-17	-inf	
2.000000e-01	4.000000e-01	1.945875e-03	6.588830e-03	4.670570e-16	0.000000e+00	2.957835e+05	1.553090e+04	8.534705e-03	3.778066e+04	8.416819e+03	8.581902e+03	2.047337e-17	-inf	
4.000000e-01	4.000000e-01	1.945875e-03	6.588830e-03	1.350914e-16	0.000000e+00	2.957835e+05	1.553090e+04	8.534705e-03	3.778066e+04	8.416819e+03	8.581902e+03	5.921710e-18	-inf	
6.000000e-01	4.000000e-01	1.945875e-03	6.588830e-03	-4.959020e-16	-9.094947e-19	2.957835e+05	1.553090e+04	8.534705e-03	3.778066e+04	8.416819e+03	8.581902e+03	2.173782e-17	-inf	
8.000000e-01	4.000000e-01	1.945875e-03	6.588830e-03	-1.787157e-16	0.000000e+00	2.957835e+05	1.553090e+04	8.534705e-03	3.778066e+04	8.416819e+03	8.581902e+03	7.833974e-18	-inf	
1.000000e+00	4.000000e-01	1.945875e-03	6.588830e-03	0.000000e+00	0.000000e+00	2.957835e+05	1.553090e+04	8.534705e-03	3.778066e+04	8.416819e+03	8.581902e+03	0.000000e+00	-inf	
0.000000e+00	6.000000e-01	1.945875e-03	6.588830e-03	9.390533e-16	1.725766e-16	2.957835e+05	1.553090e+04	8.534705e-03	3.778066e+04	8.416819e+03	8.581902e+03	4.185260e-17	-inf	
2.000000e-01	6.000000e-01	1.945875e-03	6.588830e-03	8.248366e-18	1.818989e-18	2.957835e+05	1.553090e+04	8.534705e-03	3.778066e+04	8.416819e+03	8.581902e+03	3.702533e-19	-inf	
4.000000e-01	6.000000e-01	1.945875e-03	6.588830e-03	0.000000e+00	-1.743956e-16	2.957835e+05	1.553090e+04	8.534705e-03	3.778066e+04	8.416819e+03	8.581902e+03	7.644603e-18	-inf	
6.000000e-01	6.000000e-01	1.945875e-03	6.588830e-03	-8.248366e-18	-1.828084e-16	2.957835e+05	1.553090e+04	8.534705e-03	3.778066e+04	8.416819e+03	8.581902e+03	8.021531e-18	-inf	
8.000000e-01	6.000000e-01	1.945875e-03	6.588830e-03	1.796252e-16	-9.094947e-19	2.957835e+05	1.553090e+04	8.534705e-03	3.778066e+04	8.416819e+03	8.581902e+03	7.873942e-18	-inf	
1.000000e+00	6.000000e-01	1.945875e-03	6.588830e-03	9.927135e-16	-9.094947e-19	2.957835e+05	1.553090e+04	8.534705e-03	3.778066e+04	8.416819e+03	8.581902e+03	4.351545e-17	-inf	
0.000000e+00	8.000000e-01	1.945875e-03	6.588830e-03	-2.514753e-16	0.000000e+00	2.957835e+05	1.553090e+04	8.534705e-03	3.778066e+04	8.416819e+03	8.581902e+03	1.102338e-17	-inf	
2.000000e-01	8.000000e-01	1.945875e-03	6.588830e-03	-1.828084e-16	5.272796e-16	2.957835e+05	1.553090e+04	8.534705e-03	3.778066e+04	8.416819e+03	8.581902e+03	2.446293e-17	-inf	
4.000000e-01	8.000000e-01	1.945875e-03	6.588830e-03	-9.094947e-19	0.000000e+00	2.957835e+05	1.553090e+04	8.534705e-03	3.778066e+04	8.416819e+03	8.581902e+03	3.986755e-20	-inf	
6.000000e-01	8.000000e-01	1.945875e-03	6.588830e-03	0.000000e+00	-5.891252e-16	2.957835e+05	1.553090e+04	8.534705e-03	3.778066e+04	8.416819e+03	8.581902e+03	2.582421e-17	-inf	
8.000000e-01	8.000000e-01	1.945875e-03	6.588830e-03	0.000000e+00	1.707576e-16	2.957835e+05	1.553090e+04	8.534705e-03	3.778066e+04	8.416819e+03	8.581902e+03	7.485133e-18	-inf	
1.000000e+00	8.000000e-01	1.945875e-03	6.588830e-03	-7.330527e-16	-1.593889e-16	2.957835e+05	1.553090e+04	8.534705e-03	3.778066e+04	8.416819e+03	8.581902e+03	3.288405e-17	-inf	
0.000000e+00	1.000000e+00	1.945875e-03	6.588830e-03	1.818989e-18	-3.469722e-16	2.957835e+05	1.553090e+04	8.534705e-03	3.778066e+04	8.416819e+03	8.581902e+03	1.520968e-17	-inf	
2.000000e-01	1.000000e+00	1.945875e-03	6.588830e-03	0.000000e+00	0.000000e+00	2.957835e+05	1.553090e+04	8.534705e-03	3.778066e+04	8.416819e+03	8.581902e+03	0.000000e+00	-inf	
4.000000e-01	1.000000e+00	1.945875e-03	6.588830e-03	0.000000e+00	0.000000e+00	2.957835e+05	1.553090e+04	8.534705e-03	3.778066e+04	8.416819e+03	8.581902e+03	0.000000e+00	-inf	
6.000000e-01	1.000000e+00	1.945875e-03	6.588830e-03	1.809894e-16	-4.920366e-16	2.957835e+05	1.553090e+04	8.534705e-03	3.778066e+04	8.416819e+03	8.581902e+03	2.298121e-17	-inf	
8.000000e-01	1.000000e+00	1.945875e-03	6.588830e-03	0.000000e+00	2.378329e-16	2.957835e+05	1.553090e+04	8.534705e-03	3.778066e+04	8.416819e+03	8.581902e+03	1.042536e-17	-inf	
1.000000e+00	1.000000e+00	1.945875e-03	6.588830e-03	-3.601599e-16	-4.047251e-17	2.957835e+05	1.553090e+04	8.534705e-03	3.778066e+04	8.416819e+03	8.581902e+03	1.588692e-17	-inf	
1	2	8	7
2	3	9	8
3	4	10	9
4	5	11	10
5	6	12	11
7	8	14	13
8	9	15	14
9	10	16	15
10	11	17	16
11	12	18	17
13	14	20	19
14	15	21	20
15	16	22	21
16	17	23	22
17	18	24	23
19	20	26	25
20	21	27	26
21	22	28	27
22	23	29	28
23	24	30	29
25	26	32	31
26	27	33	32
27	28	34	33
28	29	35	34
29	30	36	35
