TITLE = "Visualization of the volumetric solution"
VARIABLES = "x","y","Density[0]","Density[1]","Momentum_x","Momentum_y","Energy","Electronic_Energy","Total_Density","Pressure","Temperature","Tve","Mach","C<sub>p</sub>"
ZONE STRANDID=7426, SOLUTIONTIME=7.425e-05, NODES= 36, ELEMENTS= 25, DATAPACKING=POINT, ZONETYPE=FEQUADRILATERAL
0.000000e+00	0.000000e+00	1.923006e-03	6.611699e-03	0.000000e+00	0.000000e+00	2.957835e+05	1.516646e+04	8.534705e-03	3.757198e+04	8.357692e+03	8.507421e+03	0.000000e+00	-inf	
2.000000e-01	0.000000e+00	1.923006e-03	6.611699e-03	0.000000e+00	1.292392e-15	2.957835e+05	1.516646e+04	8.534705e-03	3.757198e+04	8.357692e+03	8.507421e+03	5.679758e-17	-inf	
4.000000e-01	0.000000e+00	1.923006e-03	6.611699e-03	0.000000e+00	-9.963514e-16	2.957835e+05	1.516646e+04	8.534705e-03	3.757198e+04	8.357692e+03	8.507421e+03	4.378729e-17	-inf	
6.000000e-01	0.000000e+00	1.923006e-03	6.611699e-03	0.000000e+00	-8.653842e-16	2.957835e+05	1.516646e+04	8.534705e-03	3.757198e+04	8.357692e+03	8.507421e+03	3.803159e-17	-inf	
8.000000e-01	0.000000e+00	1.923006e-03	6.611699e-03	2.376055e-16	0.000000e+00	2.957835e+05	1.516646e+04	8.534705e-03	3.757198e+04	8.357692e+03	8.507421e+03	1.044220e-17	-inf	
1.000000e+00	0.000000e+00	1.923006e-03	6.611699e-03	4.256435e-16	-5.184120e-17	2.957835e+05	1.516646e+04	8.534705e-03	3.757198e+04	8.357692e+03	8.507421e+03	1.884426e-17	-inf	
0.000000e+00	2.000000e-01	1.923006e-03	6.611699e-03	0.000000e+00	0.000000e+00	2.957835e+05	1.516646e+04	8.534705e-03	3.757198e+04	8.357692e+03	8.507421e+03	0.000000e+00	-inf	
2.000000e-01	2.000000e-01	1.923006e-03	6.611699e-03	-5.868515e-16	-1.818989e-18	2.957835e+05	1.516646e+04	8.534705e-03	3.757198e+04	8.357692e+03	8.507421e+03	2.579086e-17	-inf	
4.000000e-01	2.000000e-01	1.923006e-03	6.611699e-03	-6.452865e-16	2.394245e-16	2.957835e+05	1.516646e+04	8.534705e-03	3.757198e+04	8.357692e+03	8.507421e+03	3.024794e-17	-inf	
6.000000e-01	2.000000e-01	1.923006e-03	6.611699e-03	0.000000e+00	6.825758e-16	2.957835e+05	1.516646e+04	8.534705e-03	3.757198e+04	8.357692e+03	8.507421e+03	2.999759e-17	-inf	
8.000000e-01	2.000000e-01	1.923006e-03	6.611699e-03	2.266916e-16	-4.408776e-16	2.957835e+05	1.516646e+04	8.534705e-03	3.757198e+04	8.357692e+03	8.507421e+03	2.178678e-17	-inf	
1.000000e+00	2.000000e-01	1.923006e-03	6.611699e-03	4.311005e-16	-2.121396e-16	2.957835e+05	1.516646e+04	8.534705e-03	3.757198e+04	8.357692e+03	8.507421e+03	2.111550e-17	-inf	
0.000000e+00	4.000000e-01	1.923006e-03	6.611699e-03	-1.263288e-15	0.000000e+00	2.957835e+05	1.516646e+04	8.534705e-03	3.757198e+04	8.357692e+03	8.507421e+03	5.551853e-17	-inf	
2.000000e-01	4.000000e-01	1.923006e-03	6.611699e-03	5.525178e-16	0.000000e+00	2.957835e+05	1.516646e+04	8.534705e-03	3.757198e+04	8.357692e+03	8.507421e+03	2.428185e-17	-inf	
4.000000e-01	4.000000e-01	1.923006e-03	6.611699e-03	1.862188e-16	0.000000e+00	2.957835e+05	1.516646e+04	8.534705e-03	3.757198e+04	8.357692e+03	8.507421e+03	8.183879e-18	-inf	
6.000000e-01	4.000000e-01	1.923006e-03	6.611699e-03	-6.318714e-16	-9.094947e-19	2.957835e+05	1.516646e+04	8.534705e-03	3.757198e+04	8.357692e+03	8.507421e+03	2.776929e-17	-inf	
8.000000e-01	4.000000e-01	1.923006e-03	6.611699e-03	-2.480647e-16	0.000000e+00	2.957835e+05	1.516646e+04	8.534705e-03	3.757198e+04	8.357692e+03	8.507421e+03	1.090186e-17	-inf	
1.000000e+00	4.000000e-01	1.923006e-03	6.611699e-03	0.000000e+00	0.000000e+00	2.957835e+05	1.516646e+04	8.534705e-03	3.757198e+04	8.357692e+03	8.507421e+03	0.000000e+00	-inf	
0.000000e+00	6.000000e-01	1.923006e-03	6.611699e-03	9.963514e-16	2.376055e-16	2.957835e+05	1.516646e+04	8.534705e-03	3.757198e+04	8.357692e+03	8.507421e+03	4.501518e-17	-inf	
2.000000e-01	6.000000e-01	1.923006e-03	6.611699e-03	1.023141e-17	1.818989e-18	2.957835e+05	1.516646e+04	8.534705e-03	3.757198e+04	8.357692e+03	8.507421e+03	4.566973e-19	-inf	
4.000000e-01	6.000000e-01	1.923006e-03	6.611699e-03	0.000000e+00	-2.394245e-16	2.957835e+05	1.516646e+04	8.534705e-03	3.757198e+04	8.357692e+03	8.507421e+03	1.052214e-17	-inf	
6.000000e-01	6.000000e-01	1.923006e-03	6.611699e-03	-1.023141e-17	-2.517027e-16	2.957835e+05	1.516646e+04	8.534705e-03	3.757198e+04	8.357692e+03	8.507421e+03	1.107087e-17	-inf	
8.000000e-01	6.000000e-01	1.923006e-03	6.611699e-03	2.498837e-16	-9.094947e-19	2.957835e+05	1.516646e+04	8.534705e-03	3.757198e+04	8.357692e+03	8.507421e+03	1.098187e-17	-inf	
1.000000e+00	6.000000e-01	1.923006e-03	6.611699e-03	1.262833e-15	-9.094947e-19	2.957835e+05	1.516646e+04	8.534705e-03	3.757198e+04	8.357692e+03	8.507421e+03	5.549856e-17	-inf	
0.000000e+00	8.000000e-01	1.923006e-03	6.611699e-03	-3.938112e-16	0.000000e+00	2.957835e+05	1.516646e+04	8.534705e-03	3.757198e+04	8.357692e+03	8.507421e+03	1.730707e-17	-inf	
2.000000e-01	8.000000e-01	1.923006e-03	6.611699e-03	-2.517027e-16	5.859420e-16	2.957835e+05	1.516646e+04	8.534705e-03	3.757198e+04	8.357692e+03	8.507421e+03	2.802613e-17	-inf	
4.000000e-01	8.000000e-01	1.923006e-03	6.611699e-03	-9.094947e-19	0.000000e+00	2.957835e+05	1.516646e+04	8.534705e-03	3.757198e+04	8.357692e+03	8.507421e+03	3.997015e-20	-inf	
6.000000e-01	8.000000e-01	1.923006e-03	6.611699e-03	0.000000e+00	-6.243681e-16	2.957835e+05	1.516646e+04	8.534705e-03	3.757198e+04	8.357692e+03	8.507421e+03	2.743951e-17	-inf	
8.000000e-01	8.000000e-01	1.923006e-03	6.611699e-03	0.000000e+00	2.369234e-16	2.957835e+05	1.516646e+04	8.534705e-03	3.757198e+04	8.357692e+03	8.507421e+03	1.041222e-17	-inf	
1.000000e+00	8.000000e-01	1.923006e-03	6.611699e-03	-8.635652e-16	-2.244178e-16	2.957835e+05	1.516646e+04	8.534705e-03	3.757198e+04	8.357692e+03	8.507421e+03	3.921224e-17	-inf	
0.000000e+00	1.000000e+00	1.923006e-03	6.611699e-03	1.818989e-18	-4.770300e-16	2.957835e+05	1.516646e+04	8.534705e-03	3.757198e+04	8.357692e+03	8.507421e+03	2.096449e-17	-inf	
2.000000e-01	1.000000e+00	1.923006e-03	6.611699e-03	0.000000e+00	0.000000e+00	2.957835e+05	1.516646e+04	8.534705e-03	3.757198e+04	8.357692e+03	8.507421e+03	0.000000e+00	-inf	
4.000000e-01	1.000000e+00	1.923006e-03	6.611699e-03	0.000000e+00	0.000000e+00	2.957835e+05	1.516646e+04	8.534705e-03	3.757198e+04	8.357692e+03	8.507421e+03	0.000000e+00	-inf	
6.000000e-01	1.000000e+00	1.923006e-03	6.611699e-03	2.503384e-16	-6.093615e-16	2.957835e+05	1.516646e+04	8.534705e-03	3.757198e+04	8.357692e+03	8.507421e+03	2.895181e-17	-inf	
8.000000e-01	1.000000e+00	1.923006e-03	6.611699e-03	0.000000e+00	3.201421e-16	2.957835e+05	1.516646e+04	8.534705e-03	3.757198e+04	8.357692e+03	8.507421e+03	1.406949e-17	-inf	
1.000000e+00	1.000000e+00	1.923006e-03	6.611699e-03	-4.988578e-16	1.682565e-17	2.957835e+05	1.516646e+04	8.534705e-03	3.757198e+04	8.357692e+03	8.507421e+03	2.193609e-17	-inf	
1	2	8	7
2	3	9	8
3	4	10	9
4	5	11	10
5	6	12	11
7	8	14	13
8	9	15	14
9	10	16	15
10	11	17	16
11	12	18	17
13	14	20	19
14	15	21	20
15	16	22	21
16	17	23	22
17	18	24	23
19	20	26	25
20	21	27	26
21	22	28	27
22	23	29	28
23	24	30	29
25	26	32	31
26	27	33	32
27	28	34	33
28	29	35	34
29	30	36	35
