TITLE = "Visualization of the volumetric solution"
VARIABLES = "x","y","Density[0]","Density[1]","Momentum_x","Momentum_y","Energy","Electronic_Energy","Total_Density","Pressure","Temperature","Tve","Mach","C<sub>p</sub>"
ZONE STRANDID=2198, SOLUTIONTIME=2.197e-05, NODES= 36, ELEMENTS= 25, DATAPACKING=POINT, ZONETYPE=FEQUADRILATERAL
0.000000e+00	0.000000e+00	2.232427e-03	6.302278e-03	0.000000e+00	0.000000e+00	2.957835e+05	2.120333e+04	8.534705e-03	3.967786e+04	9.010200e+03	9.703849e+03	0.000000e+00	-inf	
2.000000e-01	0.000000e+00	2.232427e-03	6.302278e-03	0.000000e+00	5.225047e-16	2.957835e+05	2.120333e+04	8.534705e-03	3.967786e+04	9.010200e+03	9.703849e+03	2.240598e-17	-inf	
4.000000e-01	0.000000e+00	2.232427e-03	6.302278e-03	0.000000e+00	-3.956302e-16	2.957835e+05	2.120333e+04	8.534705e-03	3.967786e+04	9.010200e+03	9.703849e+03	1.696537e-17	-inf	
6.000000e-01	0.000000e+00	2.232427e-03	6.302278e-03	0.000000e+00	-9.003998e-17	2.957835e+05	2.120333e+04	8.534705e-03	3.967786e+04	9.010200e+03	9.703849e+03	3.861083e-18	-inf	
8.000000e-01	0.000000e+00	2.232427e-03	6.302278e-03	4.670255e-16	0.000000e+00	2.957835e+05	2.120333e+04	8.534705e-03	3.967786e+04	9.010200e+03	9.703849e+03	2.002693e-17	-inf	
1.000000e+00	0.000000e+00	2.232427e-03	6.302278e-03	8.758434e-16	1.582521e-16	2.957835e+05	2.120333e+04	8.534705e-03	3.967786e+04	9.010200e+03	9.703849e+03	3.816596e-17	-inf	
0.000000e+00	2.000000e-01	2.232427e-03	6.302278e-03	0.000000e+00	0.000000e+00	2.957835e+05	2.120333e+04	8.534705e-03	3.967786e+04	9.010200e+03	9.703849e+03	0.000000e+00	-inf	
2.000000e-01	2.000000e-01	2.232427e-03	6.302278e-03	-2.112301e-16	-1.818989e-18	2.957835e+05	2.120333e+04	8.534705e-03	3.967786e+04	9.010200e+03	9.703849e+03	9.058281e-18	-inf	
4.000000e-01	2.000000e-01	2.232427e-03	6.302278e-03	-2.603429e-16	4.688445e-16	2.957835e+05	2.120333e+04	8.534705e-03	3.967786e+04	9.010200e+03	9.703849e+03	2.299659e-17	-inf	
6.000000e-01	2.000000e-01	2.232427e-03	6.302278e-03	0.000000e+00	5.106813e-16	2.957835e+05	2.120333e+04	8.534705e-03	3.967786e+04	9.010200e+03	9.703849e+03	2.189897e-17	-inf	
8.000000e-01	2.000000e-01	2.232427e-03	6.302278e-03	4.545200e-16	-1.173248e-16	2.957835e+05	2.120333e+04	8.534705e-03	3.967786e+04	9.010200e+03	9.703849e+03	2.012954e-17	-inf	
1.000000e+00	2.000000e-01	2.232427e-03	6.302278e-03	8.831194e-16	-4.388312e-16	2.957835e+05	2.120333e+04	8.534705e-03	3.967786e+04	9.010200e+03	9.703849e+03	4.228755e-17	-inf	
0.000000e+00	4.000000e-01	2.232427e-03	6.302278e-03	-5.866241e-16	0.000000e+00	2.957835e+05	2.120333e+04	8.534705e-03	3.967786e+04	9.010200e+03	9.703849e+03	2.515554e-17	-inf	
2.000000e-01	4.000000e-01	2.232427e-03	6.302278e-03	5.877741e-16	0.000000e+00	2.957835e+05	2.120333e+04	8.534705e-03	3.967786e+04	9.010200e+03	9.703849e+03	2.520486e-17	-inf	
4.000000e-01	4.000000e-01	2.232427e-03	6.302278e-03	4.049657e-16	0.000000e+00	2.957835e+05	2.120333e+04	8.534705e-03	3.967786e+04	9.010200e+03	9.703849e+03	1.736569e-17	-inf	
6.000000e-01	4.000000e-01	2.232427e-03	6.302278e-03	-4.692993e-16	-9.094947e-19	2.957835e+05	2.120333e+04	8.534705e-03	3.967786e+04	9.010200e+03	9.703849e+03	2.012447e-17	-inf	
8.000000e-01	4.000000e-01	2.232427e-03	6.302278e-03	-4.674803e-16	0.000000e+00	2.957835e+05	2.120333e+04	8.534705e-03	3.967786e+04	9.010200e+03	9.703849e+03	2.004643e-17	-inf	
1.000000e+00	4.000000e-01	2.232427e-03	6.302278e-03	0.000000e+00	0.000000e+00	2.957835e+05	2.120333e+04	8.534705e-03	3.967786e+04	9.010200e+03	9.703849e+03	0.000000e+00	-inf	
0.000000e+00	6.000000e-01	2.232427e-03	6.302278e-03	3.956302e-16	4.670255e-16	2.957835e+05	2.120333e+04	8.534705e-03	3.967786e+04	9.010200e+03	9.703849e+03	2.624693e-17	-inf	
2.000000e-01	6.000000e-01	2.232427e-03	6.302278e-03	-1.907300e-17	1.818989e-18	2.957835e+05	2.120333e+04	8.534705e-03	3.967786e+04	9.010200e+03	9.703849e+03	8.215973e-19	-inf	
4.000000e-01	6.000000e-01	2.232427e-03	6.302278e-03	0.000000e+00	-4.688445e-16	2.957835e+05	2.120333e+04	8.534705e-03	3.967786e+04	9.010200e+03	9.703849e+03	2.010493e-17	-inf	
6.000000e-01	6.000000e-01	2.232427e-03	6.302278e-03	1.907300e-17	-4.674803e-16	2.957835e+05	2.120333e+04	8.534705e-03	3.967786e+04	9.010200e+03	9.703849e+03	2.006311e-17	-inf	
8.000000e-01	6.000000e-01	2.232427e-03	6.302278e-03	4.683898e-16	-9.094947e-19	2.957835e+05	2.120333e+04	8.534705e-03	3.967786e+04	9.010200e+03	9.703849e+03	2.008547e-17	-inf	
1.000000e+00	6.000000e-01	2.232427e-03	6.302278e-03	9.395080e-16	-9.094947e-19	2.957835e+05	2.120333e+04	8.534705e-03	3.967786e+04	9.010200e+03	9.703849e+03	4.028789e-17	-inf	
0.000000e+00	8.000000e-01	2.232427e-03	6.302278e-03	-8.512870e-16	0.000000e+00	2.957835e+05	2.120333e+04	8.534705e-03	3.967786e+04	9.010200e+03	9.703849e+03	3.650479e-17	-inf	
2.000000e-01	8.000000e-01	2.232427e-03	6.302278e-03	-4.674803e-16	2.103206e-16	2.957835e+05	2.120333e+04	8.534705e-03	3.967786e+04	9.010200e+03	9.703849e+03	2.198183e-17	-inf	
4.000000e-01	8.000000e-01	2.232427e-03	6.302278e-03	-9.094947e-19	0.000000e+00	2.957835e+05	2.120333e+04	8.534705e-03	3.967786e+04	9.010200e+03	9.703849e+03	3.900084e-20	-inf	
6.000000e-01	8.000000e-01	2.232427e-03	6.302278e-03	0.000000e+00	-1.973604e-16	2.957835e+05	2.120333e+04	8.534705e-03	3.967786e+04	9.010200e+03	9.703849e+03	8.463182e-18	-inf	
8.000000e-01	8.000000e-01	2.232427e-03	6.302278e-03	0.000000e+00	4.647518e-16	2.957835e+05	2.120333e+04	8.534705e-03	3.967786e+04	9.010200e+03	9.703849e+03	1.992943e-17	-inf	
1.000000e+00	8.000000e-01	2.232427e-03	6.302278e-03	-8.822099e-17	-4.538379e-16	2.957835e+05	2.120333e+04	8.534705e-03	3.967786e+04	9.010200e+03	9.703849e+03	1.982570e-17	-inf	
0.000000e+00	1.000000e+00	2.232427e-03	6.302278e-03	1.818989e-18	-9.358700e-16	2.957835e+05	2.120333e+04	8.534705e-03	3.967786e+04	9.010200e+03	9.703849e+03	4.013194e-17	-inf	
2.000000e-01	1.000000e+00	2.232427e-03	6.302278e-03	0.000000e+00	0.000000e+00	2.957835e+05	2.120333e+04	8.534705e-03	3.967786e+04	9.010200e+03	9.703849e+03	0.000000e+00	-inf	
4.000000e-01	1.000000e+00	2.232427e-03	6.302278e-03	0.000000e+00	0.000000e+00	2.957835e+05	2.120333e+04	8.534705e-03	3.967786e+04	9.010200e+03	9.703849e+03	0.000000e+00	-inf	
6.000000e-01	1.000000e+00	2.232427e-03	6.302278e-03	4.697540e-16	-8.731149e-17	2.957835e+05	2.120333e+04	8.534705e-03	3.967786e+04	9.010200e+03	9.703849e+03	2.048893e-17	-inf	
8.000000e-01	1.000000e+00	2.232427e-03	6.302278e-03	0.000000e+00	9.749783e-16	2.957835e+05	2.120333e+04	8.534705e-03	3.967786e+04	9.010200e+03	9.703849e+03	4.180890e-17	-inf	
1.000000e+00	1.000000e+00	2.232427e-03	6.302278e-03	-9.376890e-16	-1.537046e-16	2.957835e+05	2.120333e+04	8.534705e-03	3.967786e+04	9.010200e+03	9.703849e+03	4.074649e-17	-inf	
1	2	8	7
2	3	9	8
3	4	10	9
4	5	11	10
5	6	12	11
7	8	14	13
8	9	15	14
9	10	16	15
10	11	17	16
11	12	18	17
13	14	20	19
14	15	21	20
15	16	22	21
16	17	23	22
17	18	24	23
19	20	26	25
20	21	27	26
21	22	28	27
22	23	29	28
23	24	30	29
25	26	32	31
26	27	33	32
27	28	34	33
28	29	35	34
29	30	36	35
