TITLE = "Visualization of the volumetric solution"
VARIABLES = "x","y","Density[0]","Density[1]","Momentum_x","Momentum_y","Energy","Electronic_Energy","Total_Density","Pressure","Temperature","Tve","Mach","C<sub>p</sub>"
ZONE STRANDID=1891, SOLUTIONTIME=1.89e-05, NODES= 36, ELEMENTS= 25, DATAPACKING=POINT, ZONETYPE=FEQUADRILATERAL
0.000000e+00	0.000000e+00	2.276482e-03	6.258223e-03	0.000000e+00	0.000000e+00	2.957835e+05	2.237173e+04	8.534705e-03	3.978413e+04	9.061237e+03	9.929340e+03	0.000000e+00	-inf	
2.000000e-01	0.000000e+00	2.276482e-03	6.258223e-03	0.000000e+00	4.611138e-16	2.957835e+05	2.237173e+04	8.534705e-03	3.978413e+04	9.061237e+03	9.929340e+03	1.975472e-17	-inf	
4.000000e-01	0.000000e+00	2.276482e-03	6.258223e-03	0.000000e+00	-3.387868e-16	2.957835e+05	2.237173e+04	8.534705e-03	3.978413e+04	9.061237e+03	9.929340e+03	1.451407e-17	-inf	
6.000000e-01	0.000000e+00	2.276482e-03	6.258223e-03	0.000000e+00	-9.003998e-17	2.957835e+05	2.237173e+04	8.534705e-03	3.978413e+04	9.061237e+03	9.929340e+03	3.857431e-18	-inf	
8.000000e-01	0.000000e+00	2.276482e-03	6.258223e-03	4.899903e-16	0.000000e+00	2.957835e+05	2.237173e+04	8.534705e-03	3.978413e+04	9.061237e+03	9.929340e+03	2.099183e-17	-inf	
1.000000e+00	0.000000e+00	2.276482e-03	6.258223e-03	9.263204e-16	1.255103e-16	2.957835e+05	2.237173e+04	8.534705e-03	3.978413e+04	9.061237e+03	9.929340e+03	4.004740e-17	-inf	
0.000000e+00	2.000000e-01	2.276482e-03	6.258223e-03	0.000000e+00	0.000000e+00	2.957835e+05	2.237173e+04	8.534705e-03	3.978413e+04	9.061237e+03	9.929340e+03	0.000000e+00	-inf	
2.000000e-01	2.000000e-01	2.276482e-03	6.258223e-03	-1.830358e-16	-1.818989e-18	2.957835e+05	2.237173e+04	8.534705e-03	3.978413e+04	9.061237e+03	9.929340e+03	7.841882e-18	-inf	
4.000000e-01	2.000000e-01	2.276482e-03	6.258223e-03	-2.296474e-16	4.918093e-16	2.957835e+05	2.237173e+04	8.534705e-03	3.978413e+04	9.061237e+03	9.929340e+03	2.325357e-17	-inf	
6.000000e-01	2.000000e-01	2.276482e-03	6.258223e-03	0.000000e+00	5.329639e-16	2.957835e+05	2.237173e+04	8.534705e-03	3.978413e+04	9.061237e+03	9.929340e+03	2.283287e-17	-inf	
8.000000e-01	2.000000e-01	2.276482e-03	6.258223e-03	4.754384e-16	-1.036824e-16	2.957835e+05	2.237173e+04	8.534705e-03	3.978413e+04	9.061237e+03	9.929340e+03	2.084712e-17	-inf	
1.000000e+00	2.000000e-01	2.276482e-03	6.258223e-03	9.331416e-16	-4.652065e-16	2.957835e+05	2.237173e+04	8.534705e-03	3.978413e+04	9.061237e+03	9.929340e+03	4.466955e-17	-inf	
0.000000e+00	4.000000e-01	2.276482e-03	6.258223e-03	-5.038601e-16	0.000000e+00	2.957835e+05	2.237173e+04	8.534705e-03	3.978413e+04	9.061237e+03	9.929340e+03	2.158603e-17	-inf	
2.000000e-01	4.000000e-01	2.276482e-03	6.258223e-03	5.990345e-16	0.000000e+00	2.957835e+05	2.237173e+04	8.534705e-03	3.978413e+04	9.061237e+03	9.929340e+03	2.566342e-17	-inf	
4.000000e-01	4.000000e-01	2.276482e-03	6.258223e-03	4.350981e-16	0.000000e+00	2.957835e+05	2.237173e+04	8.534705e-03	3.978413e+04	9.061237e+03	9.929340e+03	1.864017e-17	-inf	
6.000000e-01	4.000000e-01	2.276482e-03	6.258223e-03	-4.988578e-16	-9.094947e-19	2.957835e+05	2.237173e+04	8.534705e-03	3.978413e+04	9.061237e+03	9.929340e+03	2.137176e-17	-inf	
8.000000e-01	4.000000e-01	2.276482e-03	6.258223e-03	-4.897629e-16	0.000000e+00	2.957835e+05	2.237173e+04	8.534705e-03	3.978413e+04	9.061237e+03	9.929340e+03	2.098209e-17	-inf	
1.000000e+00	4.000000e-01	2.276482e-03	6.258223e-03	0.000000e+00	0.000000e+00	2.957835e+05	2.237173e+04	8.534705e-03	3.978413e+04	9.061237e+03	9.929340e+03	0.000000e+00	-inf	
0.000000e+00	6.000000e-01	2.276482e-03	6.258223e-03	3.387868e-16	4.899903e-16	2.957835e+05	2.237173e+04	8.534705e-03	3.978413e+04	9.061237e+03	9.929340e+03	2.552087e-17	-inf	
2.000000e-01	6.000000e-01	2.276482e-03	6.258223e-03	-1.587910e-17	1.818989e-18	2.957835e+05	2.237173e+04	8.534705e-03	3.978413e+04	9.061237e+03	9.929340e+03	6.847302e-19	-inf	
4.000000e-01	6.000000e-01	2.276482e-03	6.258223e-03	0.000000e+00	-4.918093e-16	2.957835e+05	2.237173e+04	8.534705e-03	3.978413e+04	9.061237e+03	9.929340e+03	2.106976e-17	-inf	
6.000000e-01	6.000000e-01	2.276482e-03	6.258223e-03	1.587910e-17	-4.897629e-16	2.957835e+05	2.237173e+04	8.534705e-03	3.978413e+04	9.061237e+03	9.929340e+03	2.099311e-17	-inf	
8.000000e-01	6.000000e-01	2.276482e-03	6.258223e-03	4.906724e-16	-9.094947e-19	2.957835e+05	2.237173e+04	8.534705e-03	3.978413e+04	9.061237e+03	9.929340e+03	2.102109e-17	-inf	
1.000000e+00	6.000000e-01	2.276482e-03	6.258223e-03	9.986252e-16	-9.094947e-19	2.957835e+05	2.237173e+04	8.534705e-03	3.978413e+04	9.061237e+03	9.929340e+03	4.278243e-17	-inf	
0.000000e+00	8.000000e-01	2.276482e-03	6.258223e-03	-9.104042e-16	0.000000e+00	2.957835e+05	2.237173e+04	8.534705e-03	3.978413e+04	9.061237e+03	9.929340e+03	3.900291e-17	-inf	
2.000000e-01	8.000000e-01	2.276482e-03	6.258223e-03	-4.897629e-16	1.821263e-16	2.957835e+05	2.237173e+04	8.534705e-03	3.978413e+04	9.061237e+03	9.929340e+03	2.238588e-17	-inf	
4.000000e-01	8.000000e-01	2.276482e-03	6.258223e-03	-9.094947e-19	0.000000e+00	2.957835e+05	2.237173e+04	8.534705e-03	3.978413e+04	9.061237e+03	9.929340e+03	3.896395e-20	-inf	
6.000000e-01	8.000000e-01	2.276482e-03	6.258223e-03	0.000000e+00	-1.689386e-16	2.957835e+05	2.237173e+04	8.534705e-03	3.978413e+04	9.061237e+03	9.929340e+03	7.237553e-18	-inf	
8.000000e-01	8.000000e-01	2.276482e-03	6.258223e-03	0.000000e+00	4.877165e-16	2.957835e+05	2.237173e+04	8.534705e-03	3.978413e+04	9.061237e+03	9.929340e+03	2.089442e-17	-inf	
1.000000e+00	8.000000e-01	2.276482e-03	6.258223e-03	-8.822099e-17	-4.774847e-16	2.957835e+05	2.237173e+04	8.534705e-03	3.978413e+04	9.061237e+03	9.929340e+03	2.080230e-17	-inf	
0.000000e+00	1.000000e+00	2.276482e-03	6.258223e-03	1.818989e-18	-9.817995e-16	2.957835e+05	2.237173e+04	8.534705e-03	3.978413e+04	9.061237e+03	9.929340e+03	4.206165e-17	-inf	
2.000000e-01	1.000000e+00	2.276482e-03	6.258223e-03	0.000000e+00	0.000000e+00	2.957835e+05	2.237173e+04	8.534705e-03	3.978413e+04	9.061237e+03	9.929340e+03	0.000000e+00	-inf	
4.000000e-01	1.000000e+00	2.276482e-03	6.258223e-03	0.000000e+00	0.000000e+00	2.957835e+05	2.237173e+04	8.534705e-03	3.978413e+04	9.061237e+03	9.929340e+03	0.000000e+00	-inf	
6.000000e-01	1.000000e+00	2.276482e-03	6.258223e-03	4.920366e-16	-8.731149e-17	2.957835e+05	2.237173e+04	8.534705e-03	3.978413e+04	9.061237e+03	9.929340e+03	2.140880e-17	-inf	
8.000000e-01	1.000000e+00	2.276482e-03	6.258223e-03	0.000000e+00	1.005446e-15	2.957835e+05	2.237173e+04	8.534705e-03	3.978413e+04	9.061237e+03	9.929340e+03	4.307464e-17	-inf	
1.000000e+00	1.000000e+00	2.276482e-03	6.258223e-03	-9.822543e-16	-1.246008e-16	2.957835e+05	2.237173e+04	8.534705e-03	3.978413e+04	9.061237e+03	9.929340e+03	4.241828e-17	-inf	
1	2	8	7
2	3	9	8
3	4	10	9
4	5	11	10
5	6	12	11
7	8	14	13
8	9	15	14
9	10	16	15
10	11	17	16
11	12	18	17
13	14	20	19
14	15	21	20
15	16	22	21
16	17	23	22
17	18	24	23
19	20	26	25
20	21	27	26
21	22	28	27
22	23	29	28
23	24	30	29
25	26	32	31
26	27	33	32
27	28	34	33
28	29	35	34
29	30	36	35
