TITLE = "Visualization of the volumetric solution"
VARIABLES = "x","y","Density[0]","Density[1]","Momentum_x","Momentum_y","Energy","Electronic_Energy","Total_Density","Pressure","Temperature","Tve","Mach","C<sub>p</sub>"
ZONE STRANDID=7744, SOLUTIONTIME=7.743e-05, NODES= 36, ELEMENTS= 25, DATAPACKING=POINT, ZONETYPE=FEQUADRILATERAL
0.000000e+00	0.000000e+00	1.913504e-03	6.621201e-03	0.000000e+00	0.000000e+00	2.957835e+05	1.501667e+04	8.534705e-03	3.748413e+04	8.332921e+03	8.476989e+03	0.000000e+00	-inf	
2.000000e-01	0.000000e+00	1.913504e-03	6.621201e-03	0.000000e+00	1.314675e-15	2.957835e+05	1.501667e+04	8.534705e-03	3.748413e+04	8.332921e+03	8.476989e+03	5.783974e-17	-inf	
4.000000e-01	0.000000e+00	1.913504e-03	6.621201e-03	0.000000e+00	-1.030003e-15	2.957835e+05	1.501667e+04	8.534705e-03	3.748413e+04	8.332921e+03	8.476989e+03	4.531546e-17	-inf	
6.000000e-01	0.000000e+00	1.913504e-03	6.621201e-03	0.000000e+00	-9.226824e-16	2.957835e+05	1.501667e+04	8.534705e-03	3.748413e+04	8.332921e+03	8.476989e+03	4.059385e-17	-inf	
8.000000e-01	0.000000e+00	1.913504e-03	6.621201e-03	2.826255e-16	0.000000e+00	2.957835e+05	1.501667e+04	8.534705e-03	3.748413e+04	8.332921e+03	8.476989e+03	1.243424e-17	-inf	
1.000000e+00	0.000000e+00	1.913504e-03	6.621201e-03	5.052243e-16	-8.276402e-17	2.957835e+05	1.501667e+04	8.534705e-03	3.748413e+04	8.332921e+03	8.476989e+03	2.252386e-17	-inf	
0.000000e+00	2.000000e-01	1.913504e-03	6.621201e-03	0.000000e+00	0.000000e+00	2.957835e+05	1.501667e+04	8.534705e-03	3.748413e+04	8.332921e+03	8.476989e+03	0.000000e+00	-inf	
2.000000e-01	2.000000e-01	1.913504e-03	6.621201e-03	-6.173195e-16	-1.818989e-18	2.957835e+05	1.501667e+04	8.534705e-03	3.748413e+04	8.332921e+03	8.476989e+03	2.715938e-17	-inf	
4.000000e-01	2.000000e-01	1.913504e-03	6.621201e-03	-6.564278e-16	2.844445e-16	2.957835e+05	1.501667e+04	8.534705e-03	3.748413e+04	8.332921e+03	8.476989e+03	3.147464e-17	-inf	
6.000000e-01	2.000000e-01	1.913504e-03	6.621201e-03	0.000000e+00	7.551080e-16	2.957835e+05	1.501667e+04	8.534705e-03	3.748413e+04	8.332921e+03	8.476989e+03	3.322134e-17	-inf	
8.000000e-01	2.000000e-01	1.913504e-03	6.621201e-03	2.689831e-16	-4.688445e-16	2.957835e+05	1.501667e+04	8.534705e-03	3.748413e+04	8.332921e+03	8.476989e+03	2.378065e-17	-inf	
1.000000e+00	2.000000e-01	1.913504e-03	6.621201e-03	5.056791e-16	-2.519300e-16	2.957835e+05	1.501667e+04	8.534705e-03	3.748413e+04	8.332921e+03	8.476989e+03	2.485569e-17	-inf	
0.000000e+00	4.000000e-01	1.913504e-03	6.621201e-03	-1.261924e-15	0.000000e+00	2.957835e+05	1.501667e+04	8.534705e-03	3.748413e+04	8.332921e+03	8.476989e+03	5.551894e-17	-inf	
2.000000e-01	4.000000e-01	1.913504e-03	6.621201e-03	6.060904e-16	0.000000e+00	2.957835e+05	1.501667e+04	8.534705e-03	3.748413e+04	8.332921e+03	8.476989e+03	2.666523e-17	-inf	
4.000000e-01	4.000000e-01	1.913504e-03	6.621201e-03	2.188730e-16	0.000000e+00	2.957835e+05	1.501667e+04	8.534705e-03	3.748413e+04	8.332921e+03	8.476989e+03	9.629422e-18	-inf	
6.000000e-01	4.000000e-01	1.913504e-03	6.621201e-03	-6.998562e-16	-9.094947e-19	2.957835e+05	1.501667e+04	8.534705e-03	3.748413e+04	8.332921e+03	8.476989e+03	3.079053e-17	-inf	
8.000000e-01	4.000000e-01	1.913504e-03	6.621201e-03	-2.921752e-16	0.000000e+00	2.957835e+05	1.501667e+04	8.534705e-03	3.748413e+04	8.332921e+03	8.476989e+03	1.285439e-17	-inf	
1.000000e+00	4.000000e-01	1.913504e-03	6.621201e-03	0.000000e+00	0.000000e+00	2.957835e+05	1.501667e+04	8.534705e-03	3.748413e+04	8.332921e+03	8.476989e+03	0.000000e+00	-inf	
0.000000e+00	6.000000e-01	1.913504e-03	6.621201e-03	1.030003e-15	2.826255e-16	2.957835e+05	1.501667e+04	8.534705e-03	3.748413e+04	8.332921e+03	8.476989e+03	4.699044e-17	-inf	
2.000000e-01	6.000000e-01	1.913504e-03	6.621201e-03	1.255724e-17	1.818989e-18	2.957835e+05	1.501667e+04	8.534705e-03	3.748413e+04	8.332921e+03	8.476989e+03	5.582279e-19	-inf	
4.000000e-01	6.000000e-01	1.913504e-03	6.621201e-03	0.000000e+00	-2.844445e-16	2.957835e+05	1.501667e+04	8.534705e-03	3.748413e+04	8.332921e+03	8.476989e+03	1.251427e-17	-inf	
6.000000e-01	6.000000e-01	1.913504e-03	6.621201e-03	-1.255724e-17	-2.955858e-16	2.957835e+05	1.501667e+04	8.534705e-03	3.748413e+04	8.332921e+03	8.476989e+03	1.301617e-17	-inf	
8.000000e-01	6.000000e-01	1.913504e-03	6.621201e-03	3.585683e-16	-9.094947e-19	2.957835e+05	1.501667e+04	8.534705e-03	3.748413e+04	8.332921e+03	8.476989e+03	1.577543e-17	-inf	
1.000000e+00	6.000000e-01	1.913504e-03	6.621201e-03	1.269655e-15	-9.094947e-19	2.957835e+05	1.501667e+04	8.534705e-03	3.748413e+04	8.332921e+03	8.476989e+03	5.585907e-17	-inf	
0.000000e+00	8.000000e-01	1.913504e-03	6.621201e-03	-4.729372e-16	0.000000e+00	2.957835e+05	1.501667e+04	8.534705e-03	3.748413e+04	8.332921e+03	8.476989e+03	2.080710e-17	-inf	
2.000000e-01	8.000000e-01	1.913504e-03	6.621201e-03	-2.955858e-16	6.164100e-16	2.957835e+05	1.501667e+04	8.534705e-03	3.748413e+04	8.332921e+03	8.476989e+03	3.007606e-17	-inf	
4.000000e-01	8.000000e-01	1.913504e-03	6.621201e-03	-9.094947e-19	0.000000e+00	2.957835e+05	1.501667e+04	8.534705e-03	3.748413e+04	8.332921e+03	8.476989e+03	4.001365e-20	-inf	
6.000000e-01	8.000000e-01	1.913504e-03	6.621201e-03	0.000000e+00	-6.393748e-16	2.957835e+05	1.501667e+04	8.534705e-03	3.748413e+04	8.332921e+03	8.476989e+03	2.812960e-17	-inf	
8.000000e-01	8.000000e-01	1.913504e-03	6.621201e-03	0.000000e+00	2.792149e-16	2.957835e+05	1.501667e+04	8.534705e-03	3.748413e+04	8.332921e+03	8.476989e+03	1.228419e-17	-inf	
1.000000e+00	8.000000e-01	1.913504e-03	6.621201e-03	-9.208634e-16	-2.694378e-16	2.957835e+05	1.501667e+04	8.534705e-03	3.748413e+04	8.332921e+03	8.476989e+03	4.221242e-17	-inf	
0.000000e+00	1.000000e+00	1.913504e-03	6.621201e-03	1.818989e-18	-5.670699e-16	2.957835e+05	1.501667e+04	8.534705e-03	3.748413e+04	8.332921e+03	8.476989e+03	2.494864e-17	-inf	
2.000000e-01	1.000000e+00	1.913504e-03	6.621201e-03	0.000000e+00	0.000000e+00	2.957835e+05	1.501667e+04	8.534705e-03	3.748413e+04	8.332921e+03	8.476989e+03	0.000000e+00	-inf	
4.000000e-01	1.000000e+00	1.913504e-03	6.621201e-03	0.000000e+00	0.000000e+00	2.957835e+05	1.501667e+04	8.534705e-03	3.748413e+04	8.332921e+03	8.476989e+03	0.000000e+00	-inf	
6.000000e-01	1.000000e+00	1.913504e-03	6.621201e-03	2.944489e-16	-6.702976e-16	2.957835e+05	1.501667e+04	8.534705e-03	3.748413e+04	8.332921e+03	8.476989e+03	3.220995e-17	-inf	
8.000000e-01	1.000000e+00	1.913504e-03	6.621201e-03	0.000000e+00	3.710738e-16	2.957835e+05	1.501667e+04	8.534705e-03	3.748413e+04	8.332921e+03	8.476989e+03	1.632557e-17	-inf	
1.000000e+00	1.000000e+00	1.913504e-03	6.621201e-03	-5.870788e-16	5.047696e-17	2.957835e+05	1.501667e+04	8.534705e-03	3.748413e+04	8.332921e+03	8.476989e+03	2.592411e-17	-inf	
1	2	8	7
2	3	9	8
3	4	10	9
4	5	11	10
5	6	12	11
7	8	14	13
8	9	15	14
9	10	16	15
10	11	17	16
11	12	18	17
13	14	20	19
14	15	21	20
15	16	22	21
16	17	23	22
17	18	24	23
19	20	26	25
20	21	27	26
21	22	28	27
22	23	29	28
23	24	30	29
25	26	32	31
26	27	33	32
27	28	34	33
28	29	35	34
29	30	36	35
