TITLE = "Visualization of the volumetric solution"
VARIABLES = "x","y","Density[0]","Density[1]","Momentum_x","Momentum_y","Energy","Electronic_Energy","Total_Density","Pressure","Temperature","Tve","Mach","C<sub>p</sub>"
ZONE STRANDID=9723, SOLUTIONTIME=9.722e-05, NODES= 36, ELEMENTS= 25, DATAPACKING=POINT, ZONETYPE=FEQUADRILATERAL
0.000000e+00	0.000000e+00	1.863059e-03	6.671646e-03	0.000000e+00	0.000000e+00	2.957835e+05	1.423555e+04	8.534705e-03	3.700733e+04	8.199634e+03	8.316254e+03	0.000000e+00	-inf	
2.000000e-01	0.000000e+00	1.863059e-03	6.671646e-03	0.000000e+00	1.495664e-15	2.957835e+05	1.423555e+04	8.534705e-03	3.700733e+04	8.199634e+03	8.316254e+03	6.619598e-17	-inf	
4.000000e-01	0.000000e+00	1.863059e-03	6.671646e-03	0.000000e+00	-1.191893e-15	2.957835e+05	1.423555e+04	8.534705e-03	3.700733e+04	8.199634e+03	8.316254e+03	5.275149e-17	-inf	
6.000000e-01	0.000000e+00	1.863059e-03	6.671646e-03	0.000000e+00	-1.254193e-15	2.957835e+05	1.423555e+04	8.534705e-03	3.700733e+04	8.199634e+03	8.316254e+03	5.550882e-17	-inf	
8.000000e-01	0.000000e+00	1.863059e-03	6.671646e-03	4.017693e-16	0.000000e+00	2.957835e+05	1.423555e+04	8.534705e-03	3.700733e+04	8.199634e+03	8.316254e+03	1.778174e-17	-inf	
1.000000e+00	0.000000e+00	1.863059e-03	6.671646e-03	7.680683e-16	-1.164153e-16	2.957835e+05	1.423555e+04	8.534705e-03	3.700733e+04	8.199634e+03	8.316254e+03	3.438187e-17	-inf	
0.000000e+00	2.000000e-01	1.863059e-03	6.671646e-03	0.000000e+00	0.000000e+00	2.957835e+05	1.423555e+04	8.534705e-03	3.700733e+04	8.199634e+03	8.316254e+03	0.000000e+00	-inf	
2.000000e-01	2.000000e-01	1.863059e-03	6.671646e-03	-7.876224e-16	-1.818989e-18	2.957835e+05	1.423555e+04	8.534705e-03	3.700733e+04	8.199634e+03	8.316254e+03	3.485915e-17	-inf	
4.000000e-01	2.000000e-01	1.863059e-03	6.671646e-03	-7.469225e-16	4.035883e-16	2.957835e+05	1.423555e+04	8.534705e-03	3.700733e+04	8.199634e+03	8.316254e+03	3.757491e-17	-inf	
6.000000e-01	2.000000e-01	1.863059e-03	6.671646e-03	0.000000e+00	1.045919e-15	2.957835e+05	1.423555e+04	8.534705e-03	3.700733e+04	8.199634e+03	8.316254e+03	4.629089e-17	-inf	
8.000000e-01	2.000000e-01	1.863059e-03	6.671646e-03	3.860805e-16	-6.402843e-16	2.957835e+05	1.423555e+04	8.534705e-03	3.700733e+04	8.199634e+03	8.316254e+03	3.309116e-17	-inf	
1.000000e+00	2.000000e-01	1.863059e-03	6.671646e-03	7.648850e-16	-3.790319e-16	2.957835e+05	1.423555e+04	8.534705e-03	3.700733e+04	8.199634e+03	8.316254e+03	3.778124e-17	-inf	
0.000000e+00	4.000000e-01	1.863059e-03	6.671646e-03	-1.254648e-15	0.000000e+00	2.957835e+05	1.423555e+04	8.534705e-03	3.700733e+04	8.199634e+03	8.316254e+03	5.552895e-17	-inf	
2.000000e-01	4.000000e-01	1.863059e-03	6.671646e-03	7.800836e-16	0.000000e+00	2.957835e+05	1.423555e+04	8.534705e-03	3.700733e+04	8.199634e+03	8.316254e+03	3.452540e-17	-inf	
4.000000e-01	4.000000e-01	1.863059e-03	6.671646e-03	3.098749e-16	0.000000e+00	2.957835e+05	1.423555e+04	8.534705e-03	3.700733e+04	8.199634e+03	8.316254e+03	1.371462e-17	-inf	
6.000000e-01	4.000000e-01	1.863059e-03	6.671646e-03	-1.005901e-15	-9.094947e-19	2.957835e+05	1.423555e+04	8.534705e-03	3.700733e+04	8.199634e+03	8.316254e+03	4.451978e-17	-inf	
8.000000e-01	4.000000e-01	1.863059e-03	6.671646e-03	-4.192771e-16	0.000000e+00	2.957835e+05	1.423555e+04	8.534705e-03	3.700733e+04	8.199634e+03	8.316254e+03	1.855661e-17	-inf	
1.000000e+00	4.000000e-01	1.863059e-03	6.671646e-03	0.000000e+00	0.000000e+00	2.957835e+05	1.423555e+04	8.534705e-03	3.700733e+04	8.199634e+03	8.316254e+03	0.000000e+00	-inf	
0.000000e+00	6.000000e-01	1.863059e-03	6.671646e-03	1.191893e-15	4.017693e-16	2.957835e+05	1.423555e+04	8.534705e-03	3.700733e+04	8.199634e+03	8.316254e+03	5.566786e-17	-inf	
2.000000e-01	6.000000e-01	1.863059e-03	6.671646e-03	4.563119e-17	1.818989e-18	2.957835e+05	1.423555e+04	8.534705e-03	3.700733e+04	8.199634e+03	8.316254e+03	2.021176e-18	-inf	
4.000000e-01	6.000000e-01	1.863059e-03	6.671646e-03	0.000000e+00	-4.035883e-16	2.957835e+05	1.423555e+04	8.534705e-03	3.700733e+04	8.199634e+03	8.316254e+03	1.786225e-17	-inf	
6.000000e-01	6.000000e-01	1.863059e-03	6.671646e-03	-4.563119e-17	-4.206413e-16	2.957835e+05	1.423555e+04	8.534705e-03	3.700733e+04	8.199634e+03	8.316254e+03	1.872621e-17	-inf	
8.000000e-01	6.000000e-01	1.863059e-03	6.671646e-03	7.973995e-16	-9.094947e-19	2.957835e+05	1.423555e+04	8.534705e-03	3.700733e+04	8.199634e+03	8.316254e+03	3.529180e-17	-inf	
1.000000e+00	6.000000e-01	1.863059e-03	6.671646e-03	1.258286e-15	-9.094947e-19	2.957835e+05	1.423555e+04	8.534705e-03	3.700733e+04	8.199634e+03	8.316254e+03	5.568997e-17	-inf	
0.000000e+00	8.000000e-01	1.863059e-03	6.671646e-03	-7.248673e-16	0.000000e+00	2.957835e+05	1.423555e+04	8.534705e-03	3.700733e+04	8.199634e+03	8.316254e+03	3.208160e-17	-inf	
2.000000e-01	8.000000e-01	1.863059e-03	6.671646e-03	-4.206413e-16	7.867129e-16	2.957835e+05	1.423555e+04	8.534705e-03	3.700733e+04	8.199634e+03	8.316254e+03	3.948343e-17	-inf	
4.000000e-01	8.000000e-01	1.863059e-03	6.671646e-03	-9.094947e-19	0.000000e+00	2.957835e+05	1.423555e+04	8.534705e-03	3.700733e+04	8.199634e+03	8.316254e+03	4.025295e-20	-inf	
6.000000e-01	8.000000e-01	1.863059e-03	6.671646e-03	0.000000e+00	-7.321432e-16	2.957835e+05	1.423555e+04	8.534705e-03	3.700733e+04	8.199634e+03	8.316254e+03	3.240363e-17	-inf	
8.000000e-01	8.000000e-01	1.863059e-03	6.671646e-03	0.000000e+00	3.963123e-16	2.957835e+05	1.423555e+04	8.534705e-03	3.700733e+04	8.199634e+03	8.316254e+03	1.754022e-17	-inf	
1.000000e+00	8.000000e-01	1.863059e-03	6.671646e-03	-1.285116e-15	-3.958576e-16	2.957835e+05	1.423555e+04	8.534705e-03	3.700733e+04	8.199634e+03	8.316254e+03	5.951466e-17	-inf	
0.000000e+00	1.000000e+00	1.863059e-03	6.671646e-03	1.818989e-18	-8.053576e-16	2.957835e+05	1.423555e+04	8.534705e-03	3.700733e+04	8.199634e+03	8.316254e+03	3.564408e-17	-inf	
2.000000e-01	1.000000e+00	1.863059e-03	6.671646e-03	0.000000e+00	0.000000e+00	2.957835e+05	1.423555e+04	8.534705e-03	3.700733e+04	8.199634e+03	8.316254e+03	0.000000e+00	-inf	
4.000000e-01	1.000000e+00	1.863059e-03	6.671646e-03	0.000000e+00	0.000000e+00	2.957835e+05	1.423555e+04	8.534705e-03	3.700733e+04	8.199634e+03	8.316254e+03	0.000000e+00	-inf	
6.000000e-01	1.000000e+00	1.863059e-03	6.671646e-03	4.215508e-16	-1.010903e-15	2.957835e+05	1.423555e+04	8.534705e-03	3.700733e+04	8.199634e+03	8.316254e+03	4.847539e-17	-inf	
8.000000e-01	1.000000e+00	1.863059e-03	6.671646e-03	0.000000e+00	4.461072e-16	2.957835e+05	1.423555e+04	8.534705e-03	3.700733e+04	8.199634e+03	8.316254e+03	1.974407e-17	-inf	
1.000000e+00	1.000000e+00	1.863059e-03	6.671646e-03	-8.412826e-16	8.594725e-17	2.957835e+05	1.423555e+04	8.534705e-03	3.700733e+04	8.199634e+03	8.316254e+03	3.742778e-17	-inf	
1	2	8	7
2	3	9	8
3	4	10	9
4	5	11	10
5	6	12	11
7	8	14	13
8	9	15	14
9	10	16	15
10	11	17	16
11	12	18	17
13	14	20	19
14	15	21	20
15	16	22	21
16	17	23	22
17	18	24	23
19	20	26	25
20	21	27	26
21	22	28	27
22	23	29	28
23	24	30	29
25	26	32	31
26	27	33	32
27	28	34	33
28	29	35	34
29	30	36	35
