TITLE = "Visualization of the volumetric solution"
VARIABLES = "x","y","Density[0]","Density[1]","Momentum_x","Momentum_y","Energy","Electronic_Energy","Total_Density","Pressure","Temperature","Tve","Mach","C<sub>p</sub>"
ZONE STRANDID=7903, SOLUTIONTIME=7.902e-05, NODES= 36, ELEMENTS= 25, DATAPACKING=POINT, ZONETYPE=FEQUADRILATERAL
0.000000e+00	0.000000e+00	1.908922e-03	6.625783e-03	0.000000e+00	0.000000e+00	2.957835e+05	1.494469e+04	8.534705e-03	3.744156e+04	8.320943e+03	8.462390e+03	0.000000e+00	-inf	
2.000000e-01	0.000000e+00	1.908922e-03	6.625783e-03	0.000000e+00	1.326953e-15	2.957835e+05	1.494469e+04	8.534705e-03	3.744156e+04	8.320943e+03	8.462390e+03	5.841077e-17	-inf	
4.000000e-01	0.000000e+00	1.908922e-03	6.625783e-03	0.000000e+00	-1.045009e-15	2.957835e+05	1.494469e+04	8.534705e-03	3.744156e+04	8.320943e+03	8.462390e+03	4.599998e-17	-inf	
6.000000e-01	0.000000e+00	1.908922e-03	6.625783e-03	0.000000e+00	-9.522410e-16	2.957835e+05	1.494469e+04	8.534705e-03	3.744156e+04	8.320943e+03	8.462390e+03	4.191643e-17	-inf	
8.000000e-01	0.000000e+00	1.908922e-03	6.625783e-03	3.026344e-16	0.000000e+00	2.957835e+05	1.494469e+04	8.534705e-03	3.744156e+04	8.320943e+03	8.462390e+03	1.332158e-17	-inf	
1.000000e+00	0.000000e+00	1.908922e-03	6.625783e-03	5.584297e-16	-9.640644e-17	2.957835e+05	1.494469e+04	8.534705e-03	3.744156e+04	8.320943e+03	8.462390e+03	2.494499e-17	-inf	
0.000000e+00	2.000000e-01	1.908922e-03	6.625783e-03	0.000000e+00	0.000000e+00	2.957835e+05	1.494469e+04	8.534705e-03	3.744156e+04	8.320943e+03	8.462390e+03	0.000000e+00	-inf	
2.000000e-01	2.000000e-01	1.908922e-03	6.625783e-03	-6.330083e-16	-1.818989e-18	2.957835e+05	1.494469e+04	8.534705e-03	3.744156e+04	8.320943e+03	8.462390e+03	2.786433e-17	-inf	
4.000000e-01	2.000000e-01	1.908922e-03	6.625783e-03	-6.625669e-16	3.044534e-16	2.957835e+05	1.494469e+04	8.534705e-03	3.744156e+04	8.320943e+03	8.462390e+03	3.209707e-17	-inf	
6.000000e-01	2.000000e-01	1.908922e-03	6.625783e-03	0.000000e+00	7.905783e-16	2.957835e+05	1.494469e+04	8.534705e-03	3.744156e+04	8.320943e+03	8.462390e+03	3.480025e-17	-inf	
8.000000e-01	2.000000e-01	1.908922e-03	6.625783e-03	2.883098e-16	-4.824869e-16	2.957835e+05	1.494469e+04	8.534705e-03	3.744156e+04	8.320943e+03	8.462390e+03	2.474135e-17	-inf	
1.000000e+00	2.000000e-01	1.908922e-03	6.625783e-03	5.547918e-16	-2.785328e-16	2.957835e+05	1.494469e+04	8.534705e-03	3.744156e+04	8.320943e+03	8.462390e+03	2.732618e-17	-inf	
0.000000e+00	4.000000e-01	1.908922e-03	6.625783e-03	-1.261014e-15	0.000000e+00	2.957835e+05	1.494469e+04	8.534705e-03	3.744156e+04	8.320943e+03	8.462390e+03	5.550824e-17	-inf	
2.000000e-01	4.000000e-01	1.908922e-03	6.625783e-03	6.300642e-16	0.000000e+00	2.957835e+05	1.494469e+04	8.534705e-03	3.744156e+04	8.320943e+03	8.462390e+03	2.773462e-17	-inf	
4.000000e-01	4.000000e-01	1.908922e-03	6.625783e-03	2.421647e-16	0.000000e+00	2.957835e+05	1.494469e+04	8.534705e-03	3.744156e+04	8.320943e+03	8.462390e+03	1.065978e-17	-inf	
6.000000e-01	4.000000e-01	1.908922e-03	6.625783e-03	-7.416929e-16	-9.094947e-19	2.957835e+05	1.494469e+04	8.534705e-03	3.744156e+04	8.320943e+03	8.462390e+03	3.264840e-17	-inf	
8.000000e-01	4.000000e-01	1.908922e-03	6.625783e-03	-3.112746e-16	0.000000e+00	2.957835e+05	1.494469e+04	8.534705e-03	3.744156e+04	8.320943e+03	8.462390e+03	1.370191e-17	-inf	
1.000000e+00	4.000000e-01	1.908922e-03	6.625783e-03	0.000000e+00	0.000000e+00	2.957835e+05	1.494469e+04	8.534705e-03	3.744156e+04	8.320943e+03	8.462390e+03	0.000000e+00	-inf	
0.000000e+00	6.000000e-01	1.908922e-03	6.625783e-03	1.045009e-15	3.026344e-16	2.957835e+05	1.494469e+04	8.534705e-03	3.744156e+04	8.320943e+03	8.462390e+03	4.789011e-17	-inf	
2.000000e-01	6.000000e-01	1.908922e-03	6.625783e-03	1.434799e-17	1.818989e-18	2.957835e+05	1.494469e+04	8.534705e-03	3.744156e+04	8.320943e+03	8.462390e+03	6.366354e-19	-inf	
4.000000e-01	6.000000e-01	1.908922e-03	6.625783e-03	0.000000e+00	-3.044534e-16	2.957835e+05	1.494469e+04	8.534705e-03	3.744156e+04	8.320943e+03	8.462390e+03	1.340165e-17	-inf	
6.000000e-01	6.000000e-01	1.908922e-03	6.625783e-03	-1.434799e-17	-3.162768e-16	2.957835e+05	1.494469e+04	8.534705e-03	3.744156e+04	8.320943e+03	8.462390e+03	1.393642e-17	-inf	
8.000000e-01	6.000000e-01	1.908922e-03	6.625783e-03	4.229150e-16	-9.094947e-19	2.957835e+05	1.494469e+04	8.534705e-03	3.744156e+04	8.320943e+03	8.462390e+03	1.861622e-17	-inf	
1.000000e+00	6.000000e-01	1.908922e-03	6.625783e-03	1.262833e-15	-9.094947e-19	2.957835e+05	1.494469e+04	8.534705e-03	3.744156e+04	8.320943e+03	8.462390e+03	5.558833e-17	-inf	
0.000000e+00	8.000000e-01	1.908922e-03	6.625783e-03	-5.238689e-16	0.000000e+00	2.957835e+05	1.494469e+04	8.534705e-03	3.744156e+04	8.320943e+03	8.462390e+03	2.306004e-17	-inf	
2.000000e-01	8.000000e-01	1.908922e-03	6.625783e-03	-3.162768e-16	6.320988e-16	2.957835e+05	1.494469e+04	8.534705e-03	3.744156e+04	8.320943e+03	8.462390e+03	3.111286e-17	-inf	
4.000000e-01	8.000000e-01	1.908922e-03	6.625783e-03	-9.094947e-19	0.000000e+00	2.957835e+05	1.494469e+04	8.534705e-03	3.744156e+04	8.320943e+03	8.462390e+03	4.003480e-20	-inf	
6.000000e-01	8.000000e-01	1.908922e-03	6.625783e-03	0.000000e+00	-6.459686e-16	2.957835e+05	1.494469e+04	8.534705e-03	3.744156e+04	8.320943e+03	8.462390e+03	2.843471e-17	-inf	
8.000000e-01	8.000000e-01	1.908922e-03	6.625783e-03	0.000000e+00	2.985416e-16	2.957835e+05	1.494469e+04	8.534705e-03	3.744156e+04	8.320943e+03	8.462390e+03	1.314142e-17	-inf	
1.000000e+00	8.000000e-01	1.908922e-03	6.625783e-03	-9.504220e-16	-2.894467e-16	2.957835e+05	1.494469e+04	8.534705e-03	3.744156e+04	8.320943e+03	8.462390e+03	4.373347e-17	-inf	
0.000000e+00	1.000000e+00	1.908922e-03	6.625783e-03	1.818989e-18	-6.070877e-16	2.957835e+05	1.494469e+04	8.534705e-03	3.744156e+04	8.320943e+03	8.462390e+03	2.672335e-17	-inf	
2.000000e-01	1.000000e+00	1.908922e-03	6.625783e-03	0.000000e+00	0.000000e+00	2.957835e+05	1.494469e+04	8.534705e-03	3.744156e+04	8.320943e+03	8.462390e+03	0.000000e+00	-inf	
4.000000e-01	1.000000e+00	1.908922e-03	6.625783e-03	0.000000e+00	0.000000e+00	2.957835e+05	1.494469e+04	8.534705e-03	3.744156e+04	8.320943e+03	8.462390e+03	0.000000e+00	-inf	
6.000000e-01	1.000000e+00	1.908922e-03	6.625783e-03	3.135483e-16	-7.016752e-16	2.957835e+05	1.494469e+04	8.534705e-03	3.744156e+04	8.320943e+03	8.462390e+03	3.383035e-17	-inf	
8.000000e-01	1.000000e+00	1.908922e-03	6.625783e-03	0.000000e+00	4.092726e-16	2.957835e+05	1.494469e+04	8.534705e-03	3.744156e+04	8.320943e+03	8.462390e+03	1.801566e-17	-inf	
1.000000e+00	1.000000e+00	1.908922e-03	6.625783e-03	-6.252776e-16	6.548362e-17	2.957835e+05	1.494469e+04	8.534705e-03	3.744156e+04	8.320943e+03	8.462390e+03	2.767445e-17	-inf	
1	2	8	7
2	3	9	8
3	4	10	9
4	5	11	10
5	6	12	11
7	8	14	13
8	9	15	14
9	10	16	15
10	11	17	16
11	12	18	17
13	14	20	19
14	15	21	20
15	16	22	21
16	17	23	22
17	18	24	23
19	20	26	25
20	21	27	26
21	22	28	27
22	23	29	28
23	24	30	29
25	26	32	31
26	27	33	32
27	28	34	33
28	29	35	34
29	30	36	35
