TITLE = "Visualization of the volumetric solution"
VARIABLES = "x","y","Density[0]","Density[1]","Momentum_x","Momentum_y","Energy","Electronic_Energy","Total_Density","Pressure","Temperature","Tve","Mach","C<sub>p</sub>"
ZONE STRANDID=800, SOLUTIONTIME=7.99e-06, NODES= 36, ELEMENTS= 25, DATAPACKING=POINT, ZONETYPE=FEQUADRILATERAL
0.000000e+00	0.000000e+00	2.564681e-03	5.970024e-03	0.000000e+00	0.000000e+00	2.957835e+05	3.087942e+04	8.534705e-03	3.994082e+04	9.277675e+03	1.152020e+04	0.000000e+00	-inf	
2.000000e-01	0.000000e+00	2.564681e-03	5.970024e-03	0.000000e+00	1.700755e-16	2.957835e+05	3.087942e+04	8.534705e-03	3.994082e+04	9.277675e+03	1.152020e+04	7.290757e-18	-inf	
4.000000e-01	0.000000e+00	2.564681e-03	5.970024e-03	0.000000e+00	-1.359695e-16	2.957835e+05	3.087942e+04	8.534705e-03	3.994082e+04	9.277675e+03	1.152020e+04	5.828707e-18	-inf	
6.000000e-01	0.000000e+00	2.564681e-03	5.970024e-03	0.000000e+00	-9.003998e-17	2.957835e+05	3.087942e+04	8.534705e-03	3.994082e+04	9.277675e+03	1.152020e+04	3.859812e-18	-inf	
8.000000e-01	0.000000e+00	2.564681e-03	5.970024e-03	2.260094e-16	0.000000e+00	2.957835e+05	3.087942e+04	8.534705e-03	3.994082e+04	9.277675e+03	1.152020e+04	9.688519e-18	-inf	
1.000000e+00	0.000000e+00	2.564681e-03	5.970024e-03	4.392859e-16	2.364686e-17	2.957835e+05	3.087942e+04	8.534705e-03	3.994082e+04	9.277675e+03	1.152020e+04	1.885847e-17	-inf	
0.000000e+00	2.000000e-01	2.564681e-03	5.970024e-03	0.000000e+00	0.000000e+00	2.957835e+05	3.087942e+04	8.534705e-03	3.994082e+04	9.277675e+03	1.152020e+04	0.000000e+00	-inf	
2.000000e-01	2.000000e-01	2.564681e-03	5.970024e-03	-8.185452e-17	-1.818989e-18	2.957835e+05	3.087942e+04	8.534705e-03	3.994082e+04	9.277675e+03	1.152020e+04	3.509787e-18	-inf	
4.000000e-01	2.000000e-01	2.564681e-03	5.970024e-03	-8.412826e-17	2.278284e-16	2.957835e+05	3.087942e+04	8.534705e-03	3.994082e+04	9.277675e+03	1.152020e+04	1.041107e-17	-inf	
6.000000e-01	2.000000e-01	2.564681e-03	5.970024e-03	0.000000e+00	2.678462e-16	2.957835e+05	3.087942e+04	8.534705e-03	3.994082e+04	9.277675e+03	1.152020e+04	1.148197e-17	-inf	
8.000000e-01	2.000000e-01	2.564681e-03	5.970024e-03	2.212346e-16	-5.775291e-17	2.957835e+05	3.087942e+04	8.534705e-03	3.994082e+04	9.277675e+03	1.152020e+04	9.801650e-18	-inf	
1.000000e+00	2.000000e-01	2.564681e-03	5.970024e-03	4.392859e-16	-2.182787e-16	2.957835e+05	3.087942e+04	8.534705e-03	3.994082e+04	9.277675e+03	1.152020e+04	2.102784e-17	-inf	
0.000000e+00	4.000000e-01	2.564681e-03	5.970024e-03	-2.105480e-16	0.000000e+00	2.957835e+05	3.087942e+04	8.534705e-03	3.994082e+04	9.277675e+03	1.152020e+04	9.025723e-18	-inf	
2.000000e-01	4.000000e-01	2.564681e-03	5.970024e-03	2.958643e-16	0.000000e+00	2.957835e+05	3.087942e+04	8.534705e-03	3.994082e+04	9.277675e+03	1.152020e+04	1.268304e-17	-inf	
4.000000e-01	4.000000e-01	2.564681e-03	5.970024e-03	1.990032e-16	0.000000e+00	2.957835e+05	3.087942e+04	8.534705e-03	3.994082e+04	9.277675e+03	1.152020e+04	8.530820e-18	-inf	
6.000000e-01	4.000000e-01	2.564681e-03	5.970024e-03	-2.578417e-16	-9.094947e-19	2.957835e+05	3.087942e+04	8.534705e-03	3.994082e+04	9.277675e+03	1.152020e+04	1.105317e-17	-inf	
8.000000e-01	4.000000e-01	2.564681e-03	5.970024e-03	-2.246452e-16	0.000000e+00	2.957835e+05	3.087942e+04	8.534705e-03	3.994082e+04	9.277675e+03	1.152020e+04	9.630037e-18	-inf	
1.000000e+00	4.000000e-01	2.564681e-03	5.970024e-03	0.000000e+00	0.000000e+00	2.957835e+05	3.087942e+04	8.534705e-03	3.994082e+04	9.277675e+03	1.152020e+04	0.000000e+00	-inf	
0.000000e+00	6.000000e-01	2.564681e-03	5.970024e-03	1.359695e-16	2.260094e-16	2.957835e+05	3.087942e+04	8.534705e-03	3.994082e+04	9.277675e+03	1.152020e+04	1.130669e-17	-inf	
2.000000e-01	6.000000e-01	2.564681e-03	5.970024e-03	-3.080860e-18	1.818989e-18	2.957835e+05	3.087942e+04	8.534705e-03	3.994082e+04	9.277675e+03	1.152020e+04	1.533709e-19	-inf	
4.000000e-01	6.000000e-01	2.564681e-03	5.970024e-03	0.000000e+00	-2.278284e-16	2.957835e+05	3.087942e+04	8.534705e-03	3.994082e+04	9.277675e+03	1.152020e+04	9.766495e-18	-inf	
6.000000e-01	6.000000e-01	2.564681e-03	5.970024e-03	3.080860e-18	-2.246452e-16	2.957835e+05	3.087942e+04	8.534705e-03	3.994082e+04	9.277675e+03	1.152020e+04	9.630943e-18	-inf	
8.000000e-01	6.000000e-01	2.564681e-03	5.970024e-03	2.255547e-16	-9.094947e-19	2.957835e+05	3.087942e+04	8.534705e-03	3.994082e+04	9.277675e+03	1.152020e+04	9.669104e-18	-inf	
1.000000e+00	6.000000e-01	2.564681e-03	5.970024e-03	5.165930e-16	-9.094947e-19	2.957835e+05	3.087942e+04	8.534705e-03	3.994082e+04	9.277675e+03	1.152020e+04	2.214522e-17	-inf	
0.000000e+00	8.000000e-01	2.564681e-03	5.970024e-03	-4.283720e-16	0.000000e+00	2.957835e+05	3.087942e+04	8.534705e-03	3.994082e+04	9.277675e+03	1.152020e+04	1.836335e-17	-inf	
2.000000e-01	8.000000e-01	2.564681e-03	5.970024e-03	-2.246452e-16	8.094503e-17	2.957835e+05	3.087942e+04	8.534705e-03	3.994082e+04	9.277675e+03	1.152020e+04	1.023611e-17	-inf	
4.000000e-01	8.000000e-01	2.564681e-03	5.970024e-03	-9.094947e-19	0.000000e+00	2.957835e+05	3.087942e+04	8.534705e-03	3.994082e+04	9.277675e+03	1.152020e+04	3.898800e-20	-inf	
6.000000e-01	8.000000e-01	2.564681e-03	5.970024e-03	0.000000e+00	-6.752998e-17	2.957835e+05	3.087942e+04	8.534705e-03	3.994082e+04	9.277675e+03	1.152020e+04	2.894859e-18	-inf	
8.000000e-01	8.000000e-01	2.564681e-03	5.970024e-03	0.000000e+00	2.273737e-16	2.957835e+05	3.087942e+04	8.534705e-03	3.994082e+04	9.277675e+03	1.152020e+04	9.747001e-18	-inf	
1.000000e+00	8.000000e-01	2.564681e-03	5.970024e-03	-8.822099e-17	-2.225988e-16	2.957835e+05	3.087942e+04	8.534705e-03	3.994082e+04	9.277675e+03	1.152020e+04	1.026441e-17	-inf	
0.000000e+00	1.000000e+00	2.564681e-03	5.970024e-03	1.818989e-18	-4.538379e-16	2.957835e+05	3.087942e+04	8.534705e-03	3.994082e+04	9.277675e+03	1.152020e+04	1.945517e-17	-inf	
2.000000e-01	1.000000e+00	2.564681e-03	5.970024e-03	0.000000e+00	0.000000e+00	2.957835e+05	3.087942e+04	8.534705e-03	3.994082e+04	9.277675e+03	1.152020e+04	0.000000e+00	-inf	
4.000000e-01	1.000000e+00	2.564681e-03	5.970024e-03	0.000000e+00	0.000000e+00	2.957835e+05	3.087942e+04	8.534705e-03	3.994082e+04	9.277675e+03	1.152020e+04	0.000000e+00	-inf	
6.000000e-01	1.000000e+00	2.564681e-03	5.970024e-03	2.269189e-16	-8.731149e-17	2.957835e+05	3.087942e+04	8.534705e-03	3.994082e+04	9.277675e+03	1.152020e+04	1.042273e-17	-inf	
8.000000e-01	1.000000e+00	2.564681e-03	5.970024e-03	0.000000e+00	4.220055e-16	2.957835e+05	3.087942e+04	8.534705e-03	3.994082e+04	9.277675e+03	1.152020e+04	1.809043e-17	-inf	
1.000000e+00	1.000000e+00	2.564681e-03	5.970024e-03	-4.520189e-16	-1.409717e-17	2.957835e+05	3.087942e+04	8.534705e-03	3.994082e+04	9.277675e+03	1.152020e+04	1.938646e-17	-inf	
1	2	8	7
2	3	9	8
3	4	10	9
4	5	11	10
5	6	12	11
7	8	14	13
8	9	15	14
9	10	16	15
10	11	17	16
11	12	18	17
13	14	20	19
14	15	21	20
15	16	22	21
16	17	23	22
17	18	24	23
19	20	26	25
20	21	27	26
21	22	28	27
22	23	29	28
23	24	30	29
25	26	32	31
26	27	33	32
27	28	34	33
28	29	35	34
29	30	36	35
