TITLE = "Visualization of the volumetric solution"
VARIABLES = "x","y","Density[0]","Density[1]","Momentum_x","Momentum_y","Energy","Electronic_Energy","Total_Density","Pressure","Temperature","Tve","Mach","C<sub>p</sub>"
ZONE STRANDID=4023, SOLUTIONTIME=4.022e-05, NODES= 36, ELEMENTS= 25, DATAPACKING=POINT, ZONETYPE=FEQUADRILATERAL
0.000000e+00	0.000000e+00	2.069871e-03	6.464834e-03	0.000000e+00	0.000000e+00	2.957835e+05	1.765481e+04	8.534705e-03	3.881209e+04	8.718081e+03	9.008300e+03	0.000000e+00	-inf	
2.000000e-01	0.000000e+00	2.069871e-03	6.464834e-03	0.000000e+00	8.603820e-16	2.957835e+05	1.765481e+04	8.534705e-03	3.881209e+04	8.718081e+03	9.008300e+03	3.725058e-17	-inf	
4.000000e-01	0.000000e+00	2.069871e-03	6.464834e-03	0.000000e+00	-7.016752e-16	2.957835e+05	1.765481e+04	8.534705e-03	3.881209e+04	8.718081e+03	9.008300e+03	3.037930e-17	-inf	
6.000000e-01	0.000000e+00	2.069871e-03	6.464834e-03	0.000000e+00	-2.601155e-16	2.957835e+05	1.765481e+04	8.534705e-03	3.881209e+04	8.718081e+03	9.008300e+03	1.126180e-17	-inf	
8.000000e-01	0.000000e+00	2.069871e-03	6.464834e-03	1.207354e-16	0.000000e+00	2.957835e+05	1.765481e+04	8.534705e-03	3.881209e+04	8.718081e+03	9.008300e+03	5.227288e-18	-inf	
1.000000e+00	0.000000e+00	2.069871e-03	6.464834e-03	1.891749e-16	3.597052e-16	2.957835e+05	1.765481e+04	8.534705e-03	3.881209e+04	8.718081e+03	9.008300e+03	1.759599e-17	-inf	
0.000000e+00	2.000000e-01	2.069871e-03	6.464834e-03	0.000000e+00	0.000000e+00	2.957835e+05	1.765481e+04	8.534705e-03	3.881209e+04	8.718081e+03	9.008300e+03	0.000000e+00	-inf	
2.000000e-01	2.000000e-01	2.069871e-03	6.464834e-03	-3.531113e-16	-1.818989e-18	2.957835e+05	1.765481e+04	8.534705e-03	3.881209e+04	8.718081e+03	9.008300e+03	1.528830e-17	-inf	
4.000000e-01	2.000000e-01	2.069871e-03	6.464834e-03	-4.292815e-16	1.225544e-16	2.957835e+05	1.765481e+04	8.534705e-03	3.881209e+04	8.718081e+03	9.008300e+03	1.932848e-17	-inf	
6.000000e-01	2.000000e-01	2.069871e-03	6.464834e-03	0.000000e+00	2.580691e-16	2.957835e+05	1.765481e+04	8.534705e-03	3.881209e+04	8.718081e+03	9.008300e+03	1.117320e-17	-inf	
8.000000e-01	2.000000e-01	2.069871e-03	6.464834e-03	1.107310e-16	-2.239631e-16	2.957835e+05	1.765481e+04	8.534705e-03	3.881209e+04	8.718081e+03	9.008300e+03	1.081699e-17	-inf	
1.000000e+00	2.000000e-01	2.069871e-03	6.464834e-03	2.014531e-16	-9.595169e-17	2.957835e+05	1.765481e+04	8.534705e-03	3.881209e+04	8.718081e+03	9.008300e+03	9.660799e-18	-inf	
0.000000e+00	4.000000e-01	2.069871e-03	6.464834e-03	-9.404175e-16	0.000000e+00	2.957835e+05	1.765481e+04	8.534705e-03	3.881209e+04	8.718081e+03	9.008300e+03	4.071575e-17	-inf	
2.000000e-01	4.000000e-01	2.069871e-03	6.464834e-03	3.123638e-16	0.000000e+00	2.957835e+05	1.765481e+04	8.534705e-03	3.881209e+04	8.718081e+03	9.008300e+03	1.352391e-17	-inf	
4.000000e-01	4.000000e-01	2.069871e-03	6.464834e-03	8.248900e-17	0.000000e+00	2.957835e+05	1.765481e+04	8.534705e-03	3.881209e+04	8.718081e+03	9.008300e+03	3.571394e-18	-inf	
6.000000e-01	4.000000e-01	2.069871e-03	6.464834e-03	-2.089564e-16	-9.094947e-19	2.957835e+05	1.765481e+04	8.534705e-03	3.881209e+04	8.718081e+03	9.008300e+03	9.046935e-18	-inf	
8.000000e-01	4.000000e-01	2.069871e-03	6.464834e-03	-1.284661e-16	0.000000e+00	2.957835e+05	1.765481e+04	8.534705e-03	3.881209e+04	8.718081e+03	9.008300e+03	5.561991e-18	-inf	
1.000000e+00	4.000000e-01	2.069871e-03	6.464834e-03	0.000000e+00	0.000000e+00	2.957835e+05	1.765481e+04	8.534705e-03	3.881209e+04	8.718081e+03	9.008300e+03	0.000000e+00	-inf	
0.000000e+00	6.000000e-01	2.069871e-03	6.464834e-03	7.016752e-16	1.207354e-16	2.957835e+05	1.765481e+04	8.534705e-03	3.881209e+04	8.718081e+03	9.008300e+03	3.082574e-17	-inf	
2.000000e-01	6.000000e-01	2.069871e-03	6.464834e-03	-3.920356e-17	1.818989e-18	2.957835e+05	1.765481e+04	8.534705e-03	3.881209e+04	8.718081e+03	9.008300e+03	1.699160e-18	-inf	
4.000000e-01	6.000000e-01	2.069871e-03	6.464834e-03	0.000000e+00	-1.225544e-16	2.957835e+05	1.765481e+04	8.534705e-03	3.881209e+04	8.718081e+03	9.008300e+03	5.306041e-18	-inf	
6.000000e-01	6.000000e-01	2.069871e-03	6.464834e-03	3.920356e-17	-1.298304e-16	2.957835e+05	1.765481e+04	8.534705e-03	3.881209e+04	8.718081e+03	9.008300e+03	5.871731e-18	-inf	
8.000000e-01	6.000000e-01	2.069871e-03	6.464834e-03	1.293756e-16	-9.094947e-19	2.957835e+05	1.765481e+04	8.534705e-03	3.881209e+04	8.718081e+03	9.008300e+03	5.601507e-18	-inf	
1.000000e+00	6.000000e-01	2.069871e-03	6.464834e-03	4.188223e-16	-9.094947e-19	2.957835e+05	1.765481e+04	8.534705e-03	3.881209e+04	8.718081e+03	9.008300e+03	1.813312e-17	-inf	
0.000000e+00	8.000000e-01	2.069871e-03	6.464834e-03	-1.577973e-16	0.000000e+00	2.957835e+05	1.765481e+04	8.534705e-03	3.881209e+04	8.718081e+03	9.008300e+03	6.831897e-18	-inf	
2.000000e-01	8.000000e-01	2.069871e-03	6.464834e-03	-1.298304e-16	3.522018e-16	2.957835e+05	1.765481e+04	8.534705e-03	3.881209e+04	8.718081e+03	9.008300e+03	1.625176e-17	-inf	
4.000000e-01	8.000000e-01	2.069871e-03	6.464834e-03	-9.094947e-19	0.000000e+00	2.957835e+05	1.765481e+04	8.534705e-03	3.881209e+04	8.718081e+03	9.008300e+03	3.937693e-20	-inf	
6.000000e-01	8.000000e-01	2.069871e-03	6.464834e-03	0.000000e+00	-3.763034e-16	2.957835e+05	1.765481e+04	8.534705e-03	3.881209e+04	8.718081e+03	9.008300e+03	1.629220e-17	-inf	
8.000000e-01	8.000000e-01	2.069871e-03	6.464834e-03	0.000000e+00	1.205080e-16	2.957835e+05	1.765481e+04	8.534705e-03	3.881209e+04	8.718081e+03	9.008300e+03	5.217443e-18	-inf	
1.000000e+00	8.000000e-01	2.069871e-03	6.464834e-03	-2.582965e-16	-1.111857e-16	2.957835e+05	1.765481e+04	8.534705e-03	3.881209e+04	8.718081e+03	9.008300e+03	1.217512e-17	-inf	
0.000000e+00	1.000000e+00	2.069871e-03	6.464834e-03	1.818989e-18	-2.432898e-16	2.957835e+05	1.765481e+04	8.534705e-03	3.881209e+04	8.718081e+03	9.008300e+03	1.053362e-17	-inf	
2.000000e-01	1.000000e+00	2.069871e-03	6.464834e-03	0.000000e+00	0.000000e+00	2.957835e+05	1.765481e+04	8.534705e-03	3.881209e+04	8.718081e+03	9.008300e+03	0.000000e+00	-inf	
4.000000e-01	1.000000e+00	2.069871e-03	6.464834e-03	0.000000e+00	0.000000e+00	2.957835e+05	1.765481e+04	8.534705e-03	3.881209e+04	8.718081e+03	9.008300e+03	0.000000e+00	-inf	
6.000000e-01	1.000000e+00	2.069871e-03	6.464834e-03	1.307399e-16	-2.055458e-16	2.957835e+05	1.765481e+04	8.534705e-03	3.881209e+04	8.718081e+03	9.008300e+03	1.054685e-17	-inf	
8.000000e-01	1.000000e+00	2.069871e-03	6.464834e-03	0.000000e+00	5.816219e-16	2.957835e+05	1.765481e+04	8.534705e-03	3.881209e+04	8.718081e+03	9.008300e+03	2.518155e-17	-inf	
1.000000e+00	1.000000e+00	2.069871e-03	6.464834e-03	-2.596607e-16	-3.610694e-16	2.957835e+05	1.765481e+04	8.534705e-03	3.881209e+04	8.718081e+03	9.008300e+03	1.925525e-17	-inf	
1	2	8	7
2	3	9	8
3	4	10	9
4	5	11	10
5	6	12	11
7	8	14	13
8	9	15	14
9	10	16	15
10	11	17	16
11	12	18	17
13	14	20	19
14	15	21	20
15	16	22	21
16	17	23	22
17	18	24	23
19	20	26	25
20	21	27	26
21	22	28	27
22	23	29	28
23	24	30	29
25	26	32	31
26	27	33	32
27	28	34	33
28	29	35	34
29	30	36	35
