TITLE = "Visualization of the volumetric solution"
VARIABLES = "x","y","Density[0]","Density[1]","Momentum_x","Momentum_y","Energy","Electronic_Energy","Total_Density","Pressure","Temperature","Tve","Mach","C<sub>p</sub>"
ZONE STRANDID=2673, SOLUTIONTIME=2.672e-05, NODES= 36, ELEMENTS= 25, DATAPACKING=POINT, ZONETYPE=FEQUADRILATERAL
0.000000e+00	0.000000e+00	2.177474e-03	6.357231e-03	0.000000e+00	0.000000e+00	2.957835e+05	1.987089e+04	8.534705e-03	3.946808e+04	8.929489e+03	9.445239e+03	0.000000e+00	-inf	
2.000000e-01	0.000000e+00	2.177474e-03	6.357231e-03	0.000000e+00	6.148184e-16	2.957835e+05	1.987089e+04	8.534705e-03	3.946808e+04	8.929489e+03	9.445239e+03	2.642169e-17	-inf	
4.000000e-01	0.000000e+00	2.177474e-03	6.357231e-03	0.000000e+00	-4.838512e-16	2.957835e+05	1.987089e+04	8.534705e-03	3.946808e+04	8.929489e+03	9.445239e+03	2.079340e-17	-inf	
6.000000e-01	0.000000e+00	2.177474e-03	6.357231e-03	0.000000e+00	-1.105036e-16	2.957835e+05	1.987089e+04	8.534705e-03	3.946808e+04	8.929489e+03	9.445239e+03	4.748869e-18	-inf	
8.000000e-01	0.000000e+00	2.177474e-03	6.357231e-03	2.794422e-16	0.000000e+00	2.957835e+05	1.987089e+04	8.534705e-03	3.946808e+04	8.929489e+03	9.445239e+03	1.200897e-17	-inf	
1.000000e+00	0.000000e+00	2.177474e-03	6.357231e-03	5.061338e-16	2.023626e-16	2.957835e+05	1.987089e+04	8.534705e-03	3.946808e+04	8.929489e+03	9.445239e+03	2.342509e-17	-inf	
0.000000e+00	2.000000e-01	2.177474e-03	6.357231e-03	0.000000e+00	0.000000e+00	2.957835e+05	1.987089e+04	8.534705e-03	3.946808e+04	8.929489e+03	9.445239e+03	0.000000e+00	-inf	
2.000000e-01	2.000000e-01	2.177474e-03	6.357231e-03	-2.528395e-16	-1.818989e-18	2.957835e+05	1.987089e+04	8.534705e-03	3.946808e+04	8.929489e+03	9.445239e+03	1.086601e-17	-inf	
4.000000e-01	2.000000e-01	2.177474e-03	6.357231e-03	-3.064997e-16	2.812612e-16	2.957835e+05	1.987089e+04	8.534705e-03	3.946808e+04	8.929489e+03	9.445239e+03	1.787720e-17	-inf	
6.000000e-01	2.000000e-01	2.177474e-03	6.357231e-03	0.000000e+00	3.396963e-16	2.957835e+05	1.987089e+04	8.534705e-03	3.946808e+04	8.929489e+03	9.445239e+03	1.459838e-17	-inf	
8.000000e-01	2.000000e-01	2.177474e-03	6.357231e-03	2.683009e-16	-1.373337e-16	2.957835e+05	1.987089e+04	8.534705e-03	3.946808e+04	8.929489e+03	9.445239e+03	1.295288e-17	-inf	
1.000000e+00	2.000000e-01	2.177474e-03	6.357231e-03	5.088623e-16	-2.494289e-16	2.957835e+05	1.987089e+04	8.534705e-03	3.946808e+04	8.929489e+03	9.445239e+03	2.435407e-17	-inf	
0.000000e+00	4.000000e-01	2.177474e-03	6.357231e-03	-6.939445e-16	0.000000e+00	2.957835e+05	1.987089e+04	8.534705e-03	3.946808e+04	8.929489e+03	9.445239e+03	2.982212e-17	-inf	
2.000000e-01	4.000000e-01	2.177474e-03	6.357231e-03	4.091979e-16	0.000000e+00	2.957835e+05	1.987089e+04	8.534705e-03	3.946808e+04	8.929489e+03	9.445239e+03	1.758519e-17	-inf	
4.000000e-01	4.000000e-01	2.177474e-03	6.357231e-03	2.298000e-16	0.000000e+00	2.957835e+05	1.987089e+04	8.534705e-03	3.946808e+04	8.929489e+03	9.445239e+03	9.875608e-18	-inf	
6.000000e-01	4.000000e-01	2.177474e-03	6.357231e-03	-2.921752e-16	-9.094947e-19	2.957835e+05	1.987089e+04	8.534705e-03	3.946808e+04	8.929489e+03	9.445239e+03	1.255623e-17	-inf	
8.000000e-01	4.000000e-01	2.177474e-03	6.357231e-03	-2.828529e-16	0.000000e+00	2.957835e+05	1.987089e+04	8.534705e-03	3.946808e+04	8.929489e+03	9.445239e+03	1.215554e-17	-inf	
1.000000e+00	4.000000e-01	2.177474e-03	6.357231e-03	0.000000e+00	0.000000e+00	2.957835e+05	1.987089e+04	8.534705e-03	3.946808e+04	8.929489e+03	9.445239e+03	0.000000e+00	-inf	
0.000000e+00	6.000000e-01	2.177474e-03	6.357231e-03	4.838512e-16	2.794422e-16	2.957835e+05	1.987089e+04	8.534705e-03	3.946808e+04	8.929489e+03	9.445239e+03	2.401210e-17	-inf	
2.000000e-01	6.000000e-01	2.177474e-03	6.357231e-03	-2.084051e-17	1.818989e-18	2.957835e+05	1.987089e+04	8.534705e-03	3.946808e+04	8.929489e+03	9.445239e+03	8.990214e-19	-inf	
4.000000e-01	6.000000e-01	2.177474e-03	6.357231e-03	0.000000e+00	-2.812612e-16	2.957835e+05	1.987089e+04	8.534705e-03	3.946808e+04	8.929489e+03	9.445239e+03	1.208714e-17	-inf	
6.000000e-01	6.000000e-01	2.177474e-03	6.357231e-03	2.084051e-17	-2.862635e-16	2.957835e+05	1.987089e+04	8.534705e-03	3.946808e+04	8.929489e+03	9.445239e+03	1.233467e-17	-inf	
8.000000e-01	6.000000e-01	2.177474e-03	6.357231e-03	2.837623e-16	-9.094947e-19	2.957835e+05	1.987089e+04	8.534705e-03	3.946808e+04	8.929489e+03	9.445239e+03	1.219469e-17	-inf	
1.000000e+00	6.000000e-01	2.177474e-03	6.357231e-03	5.852598e-16	-9.094947e-19	2.957835e+05	1.987089e+04	8.534705e-03	3.946808e+04	8.929489e+03	9.445239e+03	2.515145e-17	-inf	
0.000000e+00	8.000000e-01	2.177474e-03	6.357231e-03	-4.697540e-16	0.000000e+00	2.957835e+05	1.987089e+04	8.534705e-03	3.946808e+04	8.929489e+03	9.445239e+03	2.018758e-17	-inf	
2.000000e-01	8.000000e-01	2.177474e-03	6.357231e-03	-2.862635e-16	2.519300e-16	2.957835e+05	1.987089e+04	8.534705e-03	3.946808e+04	8.929489e+03	9.445239e+03	1.638774e-17	-inf	
4.000000e-01	8.000000e-01	2.177474e-03	6.357231e-03	-9.094947e-19	0.000000e+00	2.957835e+05	1.987089e+04	8.534705e-03	3.946808e+04	8.929489e+03	9.445239e+03	3.908534e-20	-inf	
6.000000e-01	8.000000e-01	2.177474e-03	6.357231e-03	0.000000e+00	-2.514753e-16	2.957835e+05	1.987089e+04	8.534705e-03	3.946808e+04	8.929489e+03	9.445239e+03	1.080710e-17	-inf	
8.000000e-01	8.000000e-01	2.177474e-03	6.357231e-03	0.000000e+00	2.785328e-16	2.957835e+05	1.987089e+04	8.534705e-03	3.946808e+04	8.929489e+03	9.445239e+03	1.196989e-17	-inf	
1.000000e+00	8.000000e-01	2.177474e-03	6.357231e-03	-1.086846e-16	-2.689831e-16	2.957835e+05	1.987089e+04	8.534705e-03	3.946808e+04	8.929489e+03	9.445239e+03	1.246745e-17	-inf	
0.000000e+00	1.000000e+00	2.177474e-03	6.357231e-03	1.818989e-18	-5.607035e-16	2.957835e+05	1.987089e+04	8.534705e-03	3.946808e+04	8.929489e+03	9.445239e+03	2.409624e-17	-inf	
2.000000e-01	1.000000e+00	2.177474e-03	6.357231e-03	0.000000e+00	0.000000e+00	2.957835e+05	1.987089e+04	8.534705e-03	3.946808e+04	8.929489e+03	9.445239e+03	0.000000e+00	-inf	
4.000000e-01	1.000000e+00	2.177474e-03	6.357231e-03	0.000000e+00	0.000000e+00	2.957835e+05	1.987089e+04	8.534705e-03	3.946808e+04	8.929489e+03	9.445239e+03	0.000000e+00	-inf	
6.000000e-01	1.000000e+00	2.177474e-03	6.357231e-03	2.851266e-16	-8.776624e-17	2.957835e+05	1.987089e+04	8.534705e-03	3.946808e+04	8.929489e+03	9.445239e+03	1.282062e-17	-inf	
8.000000e-01	1.000000e+00	2.177474e-03	6.357231e-03	0.000000e+00	6.639311e-16	2.957835e+05	1.987089e+04	8.534705e-03	3.946808e+04	8.929489e+03	9.445239e+03	2.853230e-17	-inf	
1.000000e+00	1.000000e+00	2.177474e-03	6.357231e-03	-5.684342e-16	-1.969056e-16	2.957835e+05	1.987089e+04	8.534705e-03	3.946808e+04	8.929489e+03	9.445239e+03	2.585244e-17	-inf	
1	2	8	7
2	3	9	8
3	4	10	9
4	5	11	10
5	6	12	11
7	8	14	13
8	9	15	14
9	10	16	15
10	11	17	16
11	12	18	17
13	14	20	19
14	15	21	20
15	16	22	21
16	17	23	22
17	18	24	23
19	20	26	25
20	21	27	26
21	22	28	27
22	23	29	28
23	24	30	29
25	26	32	31
26	27	33	32
27	28	34	33
28	29	35	34
29	30	36	35
