TITLE = "Visualization of the volumetric solution"
VARIABLES = "x","y","Density[0]","Density[1]","Momentum_x","Momentum_y","Energy","Electronic_Energy","Total_Density","Pressure","Temperature","Tve","Mach","C<sub>p</sub>"
ZONE STRANDID=7943, SOLUTIONTIME=7.942e-05, NODES= 36, ELEMENTS= 25, DATAPACKING=POINT, ZONETYPE=FEQUADRILATERAL
0.000000e+00	0.000000e+00	1.907786e-03	6.626919e-03	0.000000e+00	0.000000e+00	2.957835e+05	1.492687e+04	8.534705e-03	3.743099e+04	8.317970e+03	8.458703e+03	0.000000e+00	-inf	
2.000000e-01	0.000000e+00	1.907786e-03	6.626919e-03	0.000000e+00	1.329227e-15	2.957835e+05	1.492687e+04	8.534705e-03	3.743099e+04	8.317970e+03	8.458703e+03	5.851854e-17	-inf	
4.000000e-01	0.000000e+00	1.907786e-03	6.626919e-03	0.000000e+00	-1.049102e-15	2.957835e+05	1.492687e+04	8.534705e-03	3.743099e+04	8.317970e+03	8.458703e+03	4.618620e-17	-inf	
6.000000e-01	0.000000e+00	1.907786e-03	6.626919e-03	0.000000e+00	-9.595169e-16	2.957835e+05	1.492687e+04	8.534705e-03	3.743099e+04	8.317970e+03	8.458703e+03	4.224226e-17	-inf	
8.000000e-01	0.000000e+00	1.907786e-03	6.626919e-03	3.019522e-16	0.000000e+00	2.957835e+05	1.492687e+04	8.534705e-03	3.743099e+04	8.317970e+03	8.458703e+03	1.329330e-17	-inf	
1.000000e+00	0.000000e+00	1.907786e-03	6.626919e-03	5.584297e-16	-1.004992e-16	2.957835e+05	1.492687e+04	8.534705e-03	3.743099e+04	8.317970e+03	8.458703e+03	2.497955e-17	-inf	
0.000000e+00	2.000000e-01	1.907786e-03	6.626919e-03	0.000000e+00	0.000000e+00	2.957835e+05	1.492687e+04	8.534705e-03	3.743099e+04	8.317970e+03	8.458703e+03	0.000000e+00	-inf	
2.000000e-01	2.000000e-01	1.907786e-03	6.626919e-03	-6.368737e-16	-1.818989e-18	2.957835e+05	1.492687e+04	8.534705e-03	3.743099e+04	8.317970e+03	8.458703e+03	2.803816e-17	-inf	
4.000000e-01	2.000000e-01	1.907786e-03	6.626919e-03	-6.637038e-16	3.037712e-16	2.957835e+05	1.492687e+04	8.534705e-03	3.743099e+04	8.317970e+03	8.458703e+03	3.213426e-17	-inf	
6.000000e-01	2.000000e-01	1.907786e-03	6.626919e-03	0.000000e+00	7.933068e-16	2.957835e+05	1.492687e+04	8.534705e-03	3.743099e+04	8.317970e+03	8.458703e+03	3.492494e-17	-inf	
8.000000e-01	2.000000e-01	1.907786e-03	6.626919e-03	2.871730e-16	-4.856702e-16	2.957835e+05	1.492687e+04	8.534705e-03	3.743099e+04	8.317970e+03	8.458703e+03	2.483949e-17	-inf	
1.000000e+00	2.000000e-01	1.907786e-03	6.626919e-03	5.529728e-16	-2.785328e-16	2.957835e+05	1.492687e+04	8.534705e-03	3.743099e+04	8.317970e+03	8.458703e+03	2.725822e-17	-inf	
0.000000e+00	4.000000e-01	1.907786e-03	6.626919e-03	-1.260105e-15	0.000000e+00	2.957835e+05	1.492687e+04	8.534705e-03	3.743099e+04	8.317970e+03	8.458703e+03	5.547550e-17	-inf	
2.000000e-01	4.000000e-01	1.907786e-03	6.626919e-03	6.308833e-16	0.000000e+00	2.957835e+05	1.492687e+04	8.534705e-03	3.743099e+04	8.317970e+03	8.458703e+03	2.777433e-17	-inf	
4.000000e-01	4.000000e-01	1.907786e-03	6.626919e-03	2.400280e-16	0.000000e+00	2.957835e+05	1.492687e+04	8.534705e-03	3.743099e+04	8.317970e+03	8.458703e+03	1.056711e-17	-inf	
6.000000e-01	4.000000e-01	1.907786e-03	6.626919e-03	-7.448762e-16	-9.094947e-19	2.957835e+05	1.492687e+04	8.534705e-03	3.743099e+04	8.317970e+03	8.458703e+03	3.279283e-17	-inf	
8.000000e-01	4.000000e-01	1.907786e-03	6.626919e-03	-3.103651e-16	0.000000e+00	2.957835e+05	1.492687e+04	8.534705e-03	3.743099e+04	8.317970e+03	8.458703e+03	1.366367e-17	-inf	
1.000000e+00	4.000000e-01	1.907786e-03	6.626919e-03	0.000000e+00	0.000000e+00	2.957835e+05	1.492687e+04	8.534705e-03	3.743099e+04	8.317970e+03	8.458703e+03	0.000000e+00	-inf	
0.000000e+00	6.000000e-01	1.907786e-03	6.626919e-03	1.049102e-15	3.019522e-16	2.957835e+05	1.492687e+04	8.534705e-03	3.743099e+04	8.317970e+03	8.458703e+03	4.806118e-17	-inf	
2.000000e-01	6.000000e-01	1.907786e-03	6.626919e-03	1.507674e-17	1.818989e-18	2.957835e+05	1.492687e+04	8.534705e-03	3.743099e+04	8.317970e+03	8.458703e+03	6.685592e-19	-inf	
4.000000e-01	6.000000e-01	1.907786e-03	6.626919e-03	0.000000e+00	-3.037712e-16	2.957835e+05	1.492687e+04	8.534705e-03	3.743099e+04	8.317970e+03	8.458703e+03	1.337338e-17	-inf	
6.000000e-01	6.000000e-01	1.907786e-03	6.626919e-03	-1.507674e-17	-3.153673e-16	2.957835e+05	1.492687e+04	8.534705e-03	3.743099e+04	8.317970e+03	8.458703e+03	1.389975e-17	-inf	
8.000000e-01	6.000000e-01	1.907786e-03	6.626919e-03	4.295089e-16	-9.094947e-19	2.957835e+05	1.492687e+04	8.534705e-03	3.743099e+04	8.317970e+03	8.458703e+03	1.890896e-17	-inf	
1.000000e+00	6.000000e-01	1.907786e-03	6.626919e-03	1.254193e-15	-9.094947e-19	2.957835e+05	1.492687e+04	8.534705e-03	3.743099e+04	8.317970e+03	8.458703e+03	5.521525e-17	-inf	
0.000000e+00	8.000000e-01	1.907786e-03	6.626919e-03	-5.229595e-16	0.000000e+00	2.957835e+05	1.492687e+04	8.534705e-03	3.743099e+04	8.317970e+03	8.458703e+03	2.302303e-17	-inf	
2.000000e-01	8.000000e-01	1.907786e-03	6.626919e-03	-3.153673e-16	6.359642e-16	2.957835e+05	1.492687e+04	8.534705e-03	3.743099e+04	8.317970e+03	8.458703e+03	3.125141e-17	-inf	
4.000000e-01	8.000000e-01	1.907786e-03	6.626919e-03	-9.094947e-19	0.000000e+00	2.957835e+05	1.492687e+04	8.534705e-03	3.743099e+04	8.317970e+03	8.458703e+03	4.004005e-20	-inf	
6.000000e-01	8.000000e-01	1.907786e-03	6.626919e-03	0.000000e+00	-6.477876e-16	2.957835e+05	1.492687e+04	8.534705e-03	3.743099e+04	8.317970e+03	8.458703e+03	2.851853e-17	-inf	
8.000000e-01	8.000000e-01	1.907786e-03	6.626919e-03	0.000000e+00	2.974048e-16	2.957835e+05	1.492687e+04	8.534705e-03	3.743099e+04	8.317970e+03	8.458703e+03	1.309310e-17	-inf	
1.000000e+00	8.000000e-01	1.907786e-03	6.626919e-03	-9.576979e-16	-2.887646e-16	2.957835e+05	1.492687e+04	8.534705e-03	3.743099e+04	8.317970e+03	8.458703e+03	4.403706e-17	-inf	
0.000000e+00	1.000000e+00	1.907786e-03	6.626919e-03	1.818989e-18	-6.057235e-16	2.957835e+05	1.492687e+04	8.534705e-03	3.743099e+04	8.317970e+03	8.458703e+03	2.666680e-17	-inf	
2.000000e-01	1.000000e+00	1.907786e-03	6.626919e-03	0.000000e+00	0.000000e+00	2.957835e+05	1.492687e+04	8.534705e-03	3.743099e+04	8.317970e+03	8.458703e+03	0.000000e+00	-inf	
4.000000e-01	1.000000e+00	1.907786e-03	6.626919e-03	0.000000e+00	0.000000e+00	2.957835e+05	1.492687e+04	8.534705e-03	3.743099e+04	8.317970e+03	8.458703e+03	0.000000e+00	-inf	
6.000000e-01	1.000000e+00	1.907786e-03	6.626919e-03	3.126388e-16	-7.094059e-16	2.957835e+05	1.492687e+04	8.534705e-03	3.743099e+04	8.317970e+03	8.458703e+03	3.412963e-17	-inf	
8.000000e-01	1.000000e+00	1.907786e-03	6.626919e-03	0.000000e+00	4.042704e-16	2.957835e+05	1.492687e+04	8.534705e-03	3.743099e+04	8.317970e+03	8.458703e+03	1.779780e-17	-inf	
1.000000e+00	1.000000e+00	1.907786e-03	6.626919e-03	-6.234586e-16	6.957634e-17	2.957835e+05	1.492687e+04	8.534705e-03	3.743099e+04	8.317970e+03	8.458703e+03	2.761784e-17	-inf	
1	2	8	7
2	3	9	8
3	4	10	9
4	5	11	10
5	6	12	11
7	8	14	13
8	9	15	14
9	10	16	15
10	11	17	16
11	12	18	17
13	14	20	19
14	15	21	20
15	16	22	21
16	17	23	22
17	18	24	23
19	20	26	25
20	21	27	26
21	22	28	27
22	23	29	28
23	24	30	29
25	26	32	31
26	27	33	32
27	28	34	33
28	29	35	34
29	30	36	35
