TITLE = "Visualization of the volumetric solution"
VARIABLES = "x","y","Density[0]","Density[1]","Momentum_x","Momentum_y","Energy","Electronic_Energy","Total_Density","Pressure","Temperature","Tve","Mach","C<sub>p</sub>"
ZONE STRANDID=8474, SOLUTIONTIME=8.473e-05, NODES= 36, ELEMENTS= 25, DATAPACKING=POINT, ZONETYPE=FEQUADRILATERAL
0.000000e+00	0.000000e+00	1.893311e-03	6.641394e-03	0.000000e+00	0.000000e+00	2.957835e+05	1.470123e+04	8.534705e-03	3.729529e+04	8.279909e+03	8.412132e+03	0.000000e+00	-inf	
2.000000e-01	0.000000e+00	1.893311e-03	6.641394e-03	0.000000e+00	1.373337e-15	2.957835e+05	1.470123e+04	8.534705e-03	3.729529e+04	8.279909e+03	8.412132e+03	6.056275e-17	-inf	
4.000000e-01	0.000000e+00	1.893311e-03	6.641394e-03	0.000000e+00	-1.090484e-15	2.957835e+05	1.470123e+04	8.534705e-03	3.729529e+04	8.279909e+03	8.412132e+03	4.808923e-17	-inf	
6.000000e-01	0.000000e+00	1.893311e-03	6.641394e-03	0.000000e+00	-1.058652e-15	2.957835e+05	1.470123e+04	8.534705e-03	3.729529e+04	8.279909e+03	8.412132e+03	4.668546e-17	-inf	
8.000000e-01	0.000000e+00	1.893311e-03	6.641394e-03	3.342393e-16	0.000000e+00	2.957835e+05	1.470123e+04	8.534705e-03	3.729529e+04	8.279909e+03	8.412132e+03	1.473961e-17	-inf	
1.000000e+00	0.000000e+00	1.893311e-03	6.641394e-03	6.357368e-16	-1.164153e-16	2.957835e+05	1.470123e+04	8.534705e-03	3.729529e+04	8.279909e+03	8.412132e+03	2.850151e-17	-inf	
0.000000e+00	2.000000e-01	1.893311e-03	6.641394e-03	0.000000e+00	0.000000e+00	2.957835e+05	1.470123e+04	8.534705e-03	3.729529e+04	8.279909e+03	8.412132e+03	0.000000e+00	-inf	
2.000000e-01	2.000000e-01	1.893311e-03	6.641394e-03	-6.837126e-16	-1.818989e-18	2.957835e+05	1.470123e+04	8.534705e-03	3.729529e+04	8.279909e+03	8.412132e+03	3.015113e-17	-inf	
4.000000e-01	2.000000e-01	1.893311e-03	6.641394e-03	-6.857590e-16	3.360583e-16	2.957835e+05	1.470123e+04	8.534705e-03	3.729529e+04	8.279909e+03	8.412132e+03	3.367732e-17	-inf	
6.000000e-01	2.000000e-01	1.893311e-03	6.641394e-03	0.000000e+00	8.808456e-16	2.957835e+05	1.470123e+04	8.534705e-03	3.729529e+04	8.279909e+03	8.412132e+03	3.884439e-17	-inf	
8.000000e-01	2.000000e-01	1.893311e-03	6.641394e-03	3.190053e-16	-5.284164e-16	2.957835e+05	1.470123e+04	8.534705e-03	3.729529e+04	8.279909e+03	8.412132e+03	2.721976e-17	-inf	
1.000000e+00	2.000000e-01	1.893311e-03	6.641394e-03	6.225491e-16	-3.142304e-16	2.957835e+05	1.470123e+04	8.534705e-03	3.729529e+04	8.279909e+03	8.412132e+03	3.075277e-17	-inf	
0.000000e+00	4.000000e-01	1.893311e-03	6.641394e-03	-1.258741e-15	0.000000e+00	2.957835e+05	1.470123e+04	8.534705e-03	3.729529e+04	8.279909e+03	8.412132e+03	5.550917e-17	-inf	
2.000000e-01	4.000000e-01	1.893311e-03	6.641394e-03	6.804717e-16	0.000000e+00	2.957835e+05	1.470123e+04	8.534705e-03	3.729529e+04	8.279909e+03	8.412132e+03	3.000811e-17	-inf	
4.000000e-01	4.000000e-01	1.893311e-03	6.641394e-03	2.614220e-16	0.000000e+00	2.957835e+05	1.470123e+04	8.534705e-03	3.729529e+04	8.279909e+03	8.412132e+03	1.152844e-17	-inf	
6.000000e-01	4.000000e-01	1.893311e-03	6.641394e-03	-8.265033e-16	-9.094947e-19	2.957835e+05	1.470123e+04	8.534705e-03	3.729529e+04	8.279909e+03	8.412132e+03	3.644797e-17	-inf	
8.000000e-01	4.000000e-01	1.893311e-03	6.641394e-03	-3.474270e-16	0.000000e+00	2.957835e+05	1.470123e+04	8.534705e-03	3.729529e+04	8.279909e+03	8.412132e+03	1.532117e-17	-inf	
1.000000e+00	4.000000e-01	1.893311e-03	6.641394e-03	0.000000e+00	0.000000e+00	2.957835e+05	1.470123e+04	8.534705e-03	3.729529e+04	8.279909e+03	8.412132e+03	0.000000e+00	-inf	
0.000000e+00	6.000000e-01	1.893311e-03	6.641394e-03	1.090484e-15	3.342393e-16	2.957835e+05	1.470123e+04	8.534705e-03	3.729529e+04	8.279909e+03	8.412132e+03	5.029742e-17	-inf	
2.000000e-01	6.000000e-01	1.893311e-03	6.641394e-03	2.535046e-17	1.818989e-18	2.957835e+05	1.470123e+04	8.534705e-03	3.729529e+04	8.279909e+03	8.412132e+03	1.120804e-18	-inf	
4.000000e-01	6.000000e-01	1.893311e-03	6.641394e-03	0.000000e+00	-3.360583e-16	2.957835e+05	1.470123e+04	8.534705e-03	3.729529e+04	8.279909e+03	8.412132e+03	1.481983e-17	-inf	
6.000000e-01	6.000000e-01	1.893311e-03	6.641394e-03	-2.535046e-17	-3.533387e-16	2.957835e+05	1.470123e+04	8.534705e-03	3.729529e+04	8.279909e+03	8.412132e+03	1.562193e-17	-inf	
8.000000e-01	6.000000e-01	1.893311e-03	6.641394e-03	5.479706e-16	-9.094947e-19	2.957835e+05	1.470123e+04	8.534705e-03	3.729529e+04	8.279909e+03	8.412132e+03	2.416497e-17	-inf	
1.000000e+00	6.000000e-01	1.893311e-03	6.641394e-03	1.254648e-15	-9.094947e-19	2.957835e+05	1.470123e+04	8.534705e-03	3.729529e+04	8.279909e+03	8.412132e+03	5.532870e-17	-inf	
0.000000e+00	8.000000e-01	1.893311e-03	6.641394e-03	-5.852598e-16	0.000000e+00	2.957835e+05	1.470123e+04	8.534705e-03	3.729529e+04	8.279909e+03	8.412132e+03	2.580936e-17	-inf	
2.000000e-01	8.000000e-01	1.893311e-03	6.641394e-03	-3.533387e-16	6.828031e-16	2.957835e+05	1.470123e+04	8.534705e-03	3.729529e+04	8.279909e+03	8.412132e+03	3.390372e-17	-inf	
4.000000e-01	8.000000e-01	1.893311e-03	6.641394e-03	-9.094947e-19	0.000000e+00	2.957835e+05	1.470123e+04	8.534705e-03	3.729529e+04	8.279909e+03	8.412132e+03	4.010778e-20	-inf	
6.000000e-01	8.000000e-01	1.893311e-03	6.641394e-03	0.000000e+00	-6.712071e-16	2.957835e+05	1.470123e+04	8.534705e-03	3.729529e+04	8.279909e+03	8.412132e+03	2.959955e-17	-inf	
8.000000e-01	8.000000e-01	1.893311e-03	6.641394e-03	0.000000e+00	3.292371e-16	2.957835e+05	1.470123e+04	8.534705e-03	3.729529e+04	8.279909e+03	8.412132e+03	1.451902e-17	-inf	
1.000000e+00	8.000000e-01	1.893311e-03	6.641394e-03	-1.056833e-15	-3.240075e-16	2.957835e+05	1.470123e+04	8.534705e-03	3.729529e+04	8.279909e+03	8.412132e+03	4.874636e-17	-inf	
0.000000e+00	1.000000e+00	1.893311e-03	6.641394e-03	1.818989e-18	-6.702976e-16	2.957835e+05	1.470123e+04	8.534705e-03	3.729529e+04	8.279909e+03	8.412132e+03	2.955955e-17	-inf	
2.000000e-01	1.000000e+00	1.893311e-03	6.641394e-03	0.000000e+00	0.000000e+00	2.957835e+05	1.470123e+04	8.534705e-03	3.729529e+04	8.279909e+03	8.412132e+03	0.000000e+00	-inf	
4.000000e-01	1.000000e+00	1.893311e-03	6.641394e-03	0.000000e+00	0.000000e+00	2.957835e+05	1.470123e+04	8.534705e-03	3.729529e+04	8.279909e+03	8.412132e+03	0.000000e+00	-inf	
6.000000e-01	1.000000e+00	1.893311e-03	6.641394e-03	3.497007e-16	-8.030838e-16	2.957835e+05	1.470123e+04	8.534705e-03	3.729529e+04	8.279909e+03	8.412132e+03	3.862713e-17	-inf	
8.000000e-01	1.000000e+00	1.893311e-03	6.641394e-03	0.000000e+00	4.220055e-16	2.957835e+05	1.470123e+04	8.534705e-03	3.729529e+04	8.279909e+03	8.412132e+03	1.861001e-17	-inf	
1.000000e+00	1.000000e+00	1.893311e-03	6.641394e-03	-6.975824e-16	8.594725e-17	2.957835e+05	1.470123e+04	8.534705e-03	3.729529e+04	8.279909e+03	8.412132e+03	3.099528e-17	-inf	
1	2	8	7
2	3	9	8
3	4	10	9
4	5	11	10
5	6	12	11
7	8	14	13
8	9	15	14
9	10	16	15
10	11	17	16
11	12	18	17
13	14	20	19
14	15	21	20
15	16	22	21
16	17	23	22
17	18	24	23
19	20	26	25
20	21	27	26
21	22	28	27
22	23	29	28
23	24	30	29
25	26	32	31
26	27	33	32
27	28	34	33
28	29	35	34
29	30	36	35
