TITLE = "Visualization of the volumetric solution"
VARIABLES = "x","y","Density[0]","Density[1]","Momentum_x","Momentum_y","Energy","Electronic_Energy","Total_Density","Pressure","Temperature","Tve","Mach","C<sub>p</sub>"
ZONE STRANDID=8169, SOLUTIONTIME=8.168e-05, NODES= 36, ELEMENTS= 25, DATAPACKING=POINT, ZONETYPE=FEQUADRILATERAL
0.000000e+00	0.000000e+00	1.901491e-03	6.633214e-03	0.000000e+00	0.000000e+00	2.957835e+05	1.482845e+04	8.534705e-03	3.737218e+04	8.301455e+03	8.438360e+03	0.000000e+00	-inf	
2.000000e-01	0.000000e+00	1.901491e-03	6.633214e-03	0.000000e+00	1.347416e-15	2.957835e+05	1.482845e+04	8.534705e-03	3.737218e+04	8.301455e+03	8.438360e+03	5.936274e-17	-inf	
4.000000e-01	0.000000e+00	1.901491e-03	6.633214e-03	0.000000e+00	-1.065928e-15	2.957835e+05	1.482845e+04	8.534705e-03	3.737218e+04	8.301455e+03	8.438360e+03	4.696128e-17	-inf	
6.000000e-01	0.000000e+00	1.901491e-03	6.633214e-03	0.000000e+00	-1.003627e-15	2.957835e+05	1.482845e+04	8.534705e-03	3.737218e+04	8.301455e+03	8.438360e+03	4.421653e-17	-inf	
8.000000e-01	0.000000e+00	1.901491e-03	6.633214e-03	3.187779e-16	0.000000e+00	2.957835e+05	1.482845e+04	8.534705e-03	3.737218e+04	8.301455e+03	8.438360e+03	1.404431e-17	-inf	
1.000000e+00	0.000000e+00	1.901491e-03	6.633214e-03	6.011760e-16	-1.164153e-16	2.957835e+05	1.482845e+04	8.534705e-03	3.737218e+04	8.301455e+03	8.438360e+03	2.697786e-17	-inf	
0.000000e+00	2.000000e-01	1.901491e-03	6.633214e-03	0.000000e+00	0.000000e+00	2.957835e+05	1.482845e+04	8.534705e-03	3.737218e+04	8.301455e+03	8.438360e+03	0.000000e+00	-inf	
2.000000e-01	2.000000e-01	1.901491e-03	6.633214e-03	-6.568825e-16	-1.818989e-18	2.957835e+05	1.482845e+04	8.534705e-03	3.737218e+04	8.301455e+03	8.438360e+03	2.894020e-17	-inf	
4.000000e-01	2.000000e-01	1.901491e-03	6.633214e-03	-6.727987e-16	3.205969e-16	2.957835e+05	1.482845e+04	8.534705e-03	3.737218e+04	8.301455e+03	8.438360e+03	3.283454e-17	-inf	
6.000000e-01	2.000000e-01	1.901491e-03	6.633214e-03	0.000000e+00	8.326424e-16	2.957835e+05	1.482845e+04	8.534705e-03	3.737218e+04	8.301455e+03	8.438360e+03	3.668349e-17	-inf	
8.000000e-01	2.000000e-01	1.901491e-03	6.633214e-03	3.037712e-16	-5.031779e-16	2.957835e+05	1.482845e+04	8.534705e-03	3.737218e+04	8.301455e+03	8.438360e+03	2.589489e-17	-inf	
1.000000e+00	2.000000e-01	1.901491e-03	6.633214e-03	5.957190e-16	-2.999059e-16	2.957835e+05	1.482845e+04	8.534705e-03	3.737218e+04	8.301455e+03	8.438360e+03	2.938371e-17	-inf	
0.000000e+00	4.000000e-01	1.901491e-03	6.633214e-03	-1.259650e-15	0.000000e+00	2.957835e+05	1.482845e+04	8.534705e-03	3.737218e+04	8.301455e+03	8.438360e+03	5.549605e-17	-inf	
2.000000e-01	4.000000e-01	1.901491e-03	6.633214e-03	6.540947e-16	0.000000e+00	2.957835e+05	1.482845e+04	8.534705e-03	3.737218e+04	8.301455e+03	8.438360e+03	2.881726e-17	-inf	
4.000000e-01	4.000000e-01	1.901491e-03	6.633214e-03	2.555086e-16	0.000000e+00	2.957835e+05	1.482845e+04	8.534705e-03	3.737218e+04	8.301455e+03	8.438360e+03	1.125687e-17	-inf	
6.000000e-01	4.000000e-01	1.901491e-03	6.633214e-03	-7.858034e-16	-9.094947e-19	2.957835e+05	1.482845e+04	8.534705e-03	3.737218e+04	8.301455e+03	8.438360e+03	3.461994e-17	-inf	
8.000000e-01	4.000000e-01	1.901491e-03	6.633214e-03	-3.290097e-16	0.000000e+00	2.957835e+05	1.482845e+04	8.534705e-03	3.737218e+04	8.301455e+03	8.438360e+03	1.449509e-17	-inf	
1.000000e+00	4.000000e-01	1.901491e-03	6.633214e-03	0.000000e+00	0.000000e+00	2.957835e+05	1.482845e+04	8.534705e-03	3.737218e+04	8.301455e+03	8.438360e+03	0.000000e+00	-inf	
0.000000e+00	6.000000e-01	1.901491e-03	6.633214e-03	1.065928e-15	3.187779e-16	2.957835e+05	1.482845e+04	8.534705e-03	3.737218e+04	8.301455e+03	8.438360e+03	4.901637e-17	-inf	
2.000000e-01	6.000000e-01	1.901491e-03	6.633214e-03	1.989006e-17	1.818989e-18	2.957835e+05	1.482845e+04	8.534705e-03	3.737218e+04	8.301455e+03	8.438360e+03	8.799477e-19	-inf	
4.000000e-01	6.000000e-01	1.901491e-03	6.633214e-03	0.000000e+00	-3.205969e-16	2.957835e+05	1.482845e+04	8.534705e-03	3.737218e+04	8.301455e+03	8.438360e+03	1.412445e-17	-inf	
6.000000e-01	6.000000e-01	1.901491e-03	6.633214e-03	-1.989006e-17	-3.326477e-16	2.957835e+05	1.482845e+04	8.534705e-03	3.737218e+04	8.301455e+03	8.438360e+03	1.468154e-17	-inf	
8.000000e-01	6.000000e-01	1.901491e-03	6.633214e-03	4.865797e-16	-9.094947e-19	2.957835e+05	1.482845e+04	8.534705e-03	3.737218e+04	8.301455e+03	8.438360e+03	2.143714e-17	-inf	
1.000000e+00	6.000000e-01	1.901491e-03	6.633214e-03	1.259195e-15	-9.094947e-19	2.957835e+05	1.482845e+04	8.534705e-03	3.737218e+04	8.301455e+03	8.438360e+03	5.547603e-17	-inf	
0.000000e+00	8.000000e-01	1.901491e-03	6.633214e-03	-5.634320e-16	0.000000e+00	2.957835e+05	1.482845e+04	8.534705e-03	3.737218e+04	8.301455e+03	8.438360e+03	2.482296e-17	-inf	
2.000000e-01	8.000000e-01	1.901491e-03	6.633214e-03	-3.326477e-16	6.559731e-16	2.957835e+05	1.482845e+04	8.534705e-03	3.737218e+04	8.301455e+03	8.438360e+03	3.240356e-17	-inf	
4.000000e-01	8.000000e-01	1.901491e-03	6.633214e-03	-9.094947e-19	0.000000e+00	2.957835e+05	1.482845e+04	8.534705e-03	3.737218e+04	8.301455e+03	8.438360e+03	4.006935e-20	-inf	
6.000000e-01	8.000000e-01	1.901491e-03	6.633214e-03	0.000000e+00	-6.582468e-16	2.957835e+05	1.482845e+04	8.534705e-03	3.737218e+04	8.301455e+03	8.438360e+03	2.900019e-17	-inf	
8.000000e-01	8.000000e-01	1.901491e-03	6.633214e-03	0.000000e+00	3.140030e-16	2.957835e+05	1.482845e+04	8.534705e-03	3.737218e+04	8.301455e+03	8.438360e+03	1.383394e-17	-inf	
1.000000e+00	8.000000e-01	1.901491e-03	6.633214e-03	-1.001808e-15	-3.055902e-16	2.957835e+05	1.482845e+04	8.534705e-03	3.737218e+04	8.301455e+03	8.438360e+03	4.614414e-17	-inf	
0.000000e+00	1.000000e+00	1.901491e-03	6.633214e-03	1.818989e-18	-6.393748e-16	2.957835e+05	1.482845e+04	8.534705e-03	3.737218e+04	8.301455e+03	8.438360e+03	2.816887e-17	-inf	
2.000000e-01	1.000000e+00	1.901491e-03	6.633214e-03	0.000000e+00	0.000000e+00	2.957835e+05	1.482845e+04	8.534705e-03	3.737218e+04	8.301455e+03	8.438360e+03	0.000000e+00	-inf	
4.000000e-01	1.000000e+00	1.901491e-03	6.633214e-03	0.000000e+00	0.000000e+00	2.957835e+05	1.482845e+04	8.534705e-03	3.737218e+04	8.301455e+03	8.438360e+03	0.000000e+00	-inf	
6.000000e-01	1.000000e+00	1.901491e-03	6.633214e-03	3.312834e-16	-7.494236e-16	2.957835e+05	1.482845e+04	8.534705e-03	3.737218e+04	8.301455e+03	8.438360e+03	3.609922e-17	-inf	
8.000000e-01	1.000000e+00	1.901491e-03	6.633214e-03	0.000000e+00	4.224603e-16	2.957835e+05	1.482845e+04	8.534705e-03	3.737218e+04	8.301455e+03	8.438360e+03	1.861221e-17	-inf	
1.000000e+00	1.000000e+00	1.901491e-03	6.633214e-03	-6.607479e-16	8.594725e-17	2.957835e+05	1.482845e+04	8.534705e-03	3.737218e+04	8.301455e+03	8.438360e+03	2.935562e-17	-inf	
1	2	8	7
2	3	9	8
3	4	10	9
4	5	11	10
5	6	12	11
7	8	14	13
8	9	15	14
9	10	16	15
10	11	17	16
11	12	18	17
13	14	20	19
14	15	21	20
15	16	22	21
16	17	23	22
17	18	24	23
19	20	26	25
20	21	27	26
21	22	28	27
22	23	29	28
23	24	30	29
25	26	32	31
26	27	33	32
27	28	34	33
28	29	35	34
29	30	36	35
