TITLE = "Visualization of the volumetric solution"
VARIABLES = "x","y","Density[0]","Density[1]","Momentum_x","Momentum_y","Energy","Electronic_Energy","Total_Density","Pressure","Temperature","Tve","Mach","C<sub>p</sub>"
ZONE STRANDID=595, SOLUTIONTIME=5.94e-06, NODES= 36, ELEMENTS= 25, DATAPACKING=POINT, ZONETYPE=FEQUADRILATERAL
0.000000e+00	0.000000e+00	2.679463e-03	5.855242e-03	0.000000e+00	0.000000e+00	2.957835e+05	3.398278e+04	8.534705e-03	4.016502e+04	9.404171e+03	1.207864e+04	0.000000e+00	-inf	
2.000000e-01	0.000000e+00	2.679463e-03	5.855242e-03	0.000000e+00	1.205080e-16	2.957835e+05	3.398278e+04	8.534705e-03	4.016502e+04	9.404171e+03	1.207864e+04	5.156838e-18	-inf	
4.000000e-01	0.000000e+00	2.679463e-03	5.855242e-03	0.000000e+00	-9.458745e-17	2.957835e+05	3.398278e+04	8.534705e-03	4.016502e+04	9.404171e+03	1.207864e+04	4.047631e-18	-inf	
6.000000e-01	0.000000e+00	2.679463e-03	5.855242e-03	0.000000e+00	-9.003998e-17	2.957835e+05	3.398278e+04	8.534705e-03	4.016502e+04	9.404171e+03	1.207864e+04	3.853034e-18	-inf	
8.000000e-01	0.000000e+00	2.679463e-03	5.855242e-03	8.526513e-17	0.000000e+00	2.957835e+05	3.398278e+04	8.534705e-03	4.016502e+04	9.404171e+03	1.207864e+04	3.648706e-18	-inf	
1.000000e+00	0.000000e+00	2.679463e-03	5.855242e-03	1.650733e-16	6.366463e-18	2.957835e+05	3.398278e+04	8.534705e-03	4.016502e+04	9.404171e+03	1.207864e+04	7.069147e-18	-inf	
0.000000e+00	2.000000e-01	2.679463e-03	5.855242e-03	0.000000e+00	0.000000e+00	2.957835e+05	3.398278e+04	8.534705e-03	4.016502e+04	9.404171e+03	1.207864e+04	0.000000e+00	-inf	
2.000000e-01	2.000000e-01	2.679463e-03	5.855242e-03	-6.002665e-17	-1.818989e-18	2.957835e+05	3.398278e+04	8.534705e-03	4.016502e+04	9.404171e+03	1.207864e+04	2.569868e-18	-inf	
4.000000e-01	2.000000e-01	2.679463e-03	5.855242e-03	-5.934453e-17	8.708412e-17	2.957835e+05	3.398278e+04	8.534705e-03	4.016502e+04	9.404171e+03	1.207864e+04	4.509567e-18	-inf	
6.000000e-01	2.000000e-01	2.679463e-03	5.855242e-03	0.000000e+00	1.266471e-16	2.957835e+05	3.398278e+04	8.534705e-03	4.016502e+04	9.404171e+03	1.207864e+04	5.419545e-18	-inf	
8.000000e-01	2.000000e-01	2.679463e-03	5.855242e-03	8.503775e-17	-4.774847e-17	2.957835e+05	3.398278e+04	8.534705e-03	4.016502e+04	9.404171e+03	1.207864e+04	4.173383e-18	-inf	
1.000000e+00	2.000000e-01	2.679463e-03	5.855242e-03	1.691660e-16	-8.321877e-17	2.957835e+05	3.398278e+04	8.534705e-03	4.016502e+04	9.404171e+03	1.207864e+04	8.067546e-18	-inf	
0.000000e+00	4.000000e-01	2.679463e-03	5.855242e-03	-1.587068e-16	0.000000e+00	2.957835e+05	3.398278e+04	8.534705e-03	4.016502e+04	9.404171e+03	1.207864e+04	6.791458e-18	-inf	
2.000000e-01	4.000000e-01	2.679463e-03	5.855242e-03	1.498600e-16	0.000000e+00	2.957835e+05	3.398278e+04	8.534705e-03	4.016502e+04	9.404171e+03	1.207864e+04	6.412880e-18	-inf	
4.000000e-01	4.000000e-01	2.679463e-03	5.855242e-03	6.527698e-17	0.000000e+00	2.957835e+05	3.398278e+04	8.534705e-03	4.016502e+04	9.404171e+03	1.207864e+04	2.793364e-18	-inf	
6.000000e-01	4.000000e-01	2.679463e-03	5.855242e-03	-1.246008e-16	-9.094947e-19	2.957835e+05	3.398278e+04	8.534705e-03	4.016502e+04	9.404171e+03	1.207864e+04	5.332118e-18	-inf	
8.000000e-01	4.000000e-01	2.679463e-03	5.855242e-03	-8.344614e-17	0.000000e+00	2.957835e+05	3.398278e+04	8.534705e-03	4.016502e+04	9.404171e+03	1.207864e+04	3.570867e-18	-inf	
1.000000e+00	4.000000e-01	2.679463e-03	5.855242e-03	0.000000e+00	0.000000e+00	2.957835e+05	3.398278e+04	8.534705e-03	4.016502e+04	9.404171e+03	1.207864e+04	0.000000e+00	-inf	
0.000000e+00	6.000000e-01	2.679463e-03	5.855242e-03	9.458745e-17	8.526513e-17	2.957835e+05	3.398278e+04	8.534705e-03	4.016502e+04	9.404171e+03	1.207864e+04	5.449438e-18	-inf	
2.000000e-01	6.000000e-01	2.679463e-03	5.855242e-03	1.633084e-18	1.818989e-18	2.957835e+05	3.398278e+04	8.534705e-03	4.016502e+04	9.404171e+03	1.207864e+04	1.046071e-19	-inf	
4.000000e-01	6.000000e-01	2.679463e-03	5.855242e-03	0.000000e+00	-8.708412e-17	2.957835e+05	3.398278e+04	8.534705e-03	4.016502e+04	9.404171e+03	1.207864e+04	3.726545e-18	-inf	
6.000000e-01	6.000000e-01	2.679463e-03	5.855242e-03	-1.633084e-18	-8.344614e-17	2.957835e+05	3.398278e+04	8.534705e-03	4.016502e+04	9.404171e+03	1.207864e+04	3.571551e-18	-inf	
8.000000e-01	6.000000e-01	2.679463e-03	5.855242e-03	8.435563e-17	-9.094947e-19	2.957835e+05	3.398278e+04	8.534705e-03	4.016502e+04	9.404171e+03	1.207864e+04	3.609996e-18	-inf	
1.000000e+00	6.000000e-01	2.679463e-03	5.855242e-03	2.501110e-16	-9.094947e-19	2.957835e+05	3.398278e+04	8.534705e-03	4.016502e+04	9.404171e+03	1.207864e+04	1.070294e-17	-inf	
0.000000e+00	8.000000e-01	2.679463e-03	5.855242e-03	-1.618901e-16	0.000000e+00	2.957835e+05	3.398278e+04	8.534705e-03	4.016502e+04	9.404171e+03	1.207864e+04	6.927677e-18	-inf	
2.000000e-01	8.000000e-01	2.679463e-03	5.855242e-03	-8.344614e-17	5.911716e-17	2.957835e+05	3.398278e+04	8.534705e-03	4.016502e+04	9.404171e+03	1.207864e+04	4.376166e-18	-inf	
4.000000e-01	8.000000e-01	2.679463e-03	5.855242e-03	-9.094947e-19	0.000000e+00	2.957835e+05	3.398278e+04	8.534705e-03	4.016502e+04	9.404171e+03	1.207864e+04	3.891953e-20	-inf	
6.000000e-01	8.000000e-01	2.679463e-03	5.855242e-03	0.000000e+00	-4.683898e-17	2.957835e+05	3.398278e+04	8.534705e-03	4.016502e+04	9.404171e+03	1.207864e+04	2.004356e-18	-inf	
8.000000e-01	8.000000e-01	2.679463e-03	5.855242e-03	0.000000e+00	8.640200e-17	2.957835e+05	3.398278e+04	8.534705e-03	4.016502e+04	9.404171e+03	1.207864e+04	3.697356e-18	-inf	
1.000000e+00	8.000000e-01	2.679463e-03	5.855242e-03	-8.822099e-17	-8.640200e-17	2.957835e+05	3.398278e+04	8.534705e-03	4.016502e+04	9.404171e+03	1.207864e+04	5.284177e-18	-inf	
0.000000e+00	1.000000e+00	2.679463e-03	5.855242e-03	1.818989e-18	-1.723492e-16	2.957835e+05	3.398278e+04	8.534705e-03	4.016502e+04	9.404171e+03	1.207864e+04	7.375662e-18	-inf	
2.000000e-01	1.000000e+00	2.679463e-03	5.855242e-03	0.000000e+00	0.000000e+00	2.957835e+05	3.398278e+04	8.534705e-03	4.016502e+04	9.404171e+03	1.207864e+04	0.000000e+00	-inf	
4.000000e-01	1.000000e+00	2.679463e-03	5.855242e-03	0.000000e+00	0.000000e+00	2.957835e+05	3.398278e+04	8.534705e-03	4.016502e+04	9.404171e+03	1.207864e+04	0.000000e+00	-inf	
6.000000e-01	1.000000e+00	2.679463e-03	5.855242e-03	8.571988e-17	-8.731149e-17	2.957835e+05	3.398278e+04	8.534705e-03	4.016502e+04	9.404171e+03	1.207864e+04	5.235952e-18	-inf	
8.000000e-01	1.000000e+00	2.679463e-03	5.855242e-03	0.000000e+00	1.350600e-16	2.957835e+05	3.398278e+04	8.534705e-03	4.016502e+04	9.404171e+03	1.207864e+04	5.779550e-18	-inf	
1.000000e+00	1.000000e+00	2.679463e-03	5.855242e-03	-1.696208e-16	9.549694e-18	2.957835e+05	3.398278e+04	8.534705e-03	4.016502e+04	9.404171e+03	1.207864e+04	7.269987e-18	-inf	
1	2	8	7
2	3	9	8
3	4	10	9
4	5	11	10
5	6	12	11
7	8	14	13
8	9	15	14
9	10	16	15
10	11	17	16
11	12	18	17
13	14	20	19
14	15	21	20
15	16	22	21
16	17	23	22
17	18	24	23
19	20	26	25
20	21	27	26
21	22	28	27
22	23	29	28
23	24	30	29
25	26	32	31
26	27	33	32
27	28	34	33
28	29	35	34
29	30	36	35
