TITLE = "Visualization of the volumetric solution"
VARIABLES = "x","y","Density[0]","Density[1]","Momentum_x","Momentum_y","Energy","Electronic_Energy","Total_Density","Pressure","Temperature","Tve","Mach","C<sub>p</sub>"
ZONE STRANDID=9462, SOLUTIONTIME=9.461e-05, NODES= 36, ELEMENTS= 25, DATAPACKING=POINT, ZONETYPE=FEQUADRILATERAL
0.000000e+00	0.000000e+00	1.868993e-03	6.665712e-03	0.000000e+00	0.000000e+00	2.957835e+05	1.432630e+04	8.534705e-03	3.706424e+04	8.215451e+03	8.335187e+03	0.000000e+00	-inf	
2.000000e-01	0.000000e+00	1.868993e-03	6.665712e-03	0.000000e+00	1.471562e-15	2.957835e+05	1.432630e+04	8.534705e-03	3.706424e+04	8.215451e+03	8.335187e+03	6.508260e-17	-inf	
4.000000e-01	0.000000e+00	1.868993e-03	6.665712e-03	0.000000e+00	-1.169155e-15	2.957835e+05	1.432630e+04	8.534705e-03	3.706424e+04	8.215451e+03	8.335187e+03	5.170808e-17	-inf	
6.000000e-01	0.000000e+00	1.868993e-03	6.665712e-03	0.000000e+00	-1.235549e-15	2.957835e+05	1.432630e+04	8.534705e-03	3.706424e+04	8.215451e+03	8.335187e+03	5.464444e-17	-inf	
8.000000e-01	0.000000e+00	1.868993e-03	6.665712e-03	3.906280e-16	0.000000e+00	2.957835e+05	1.432630e+04	8.534705e-03	3.706424e+04	8.215451e+03	8.335187e+03	1.727625e-17	-inf	
1.000000e+00	0.000000e+00	1.868993e-03	6.665712e-03	7.485141e-16	-1.164153e-16	2.957835e+05	1.432630e+04	8.534705e-03	3.706424e+04	8.215451e+03	8.335187e+03	3.350243e-17	-inf	
0.000000e+00	2.000000e-01	1.868993e-03	6.665712e-03	0.000000e+00	0.000000e+00	2.957835e+05	1.432630e+04	8.534705e-03	3.706424e+04	8.215451e+03	8.335187e+03	0.000000e+00	-inf	
2.000000e-01	2.000000e-01	1.868993e-03	6.665712e-03	-7.657945e-16	-1.818989e-18	2.957835e+05	1.432630e+04	8.534705e-03	3.706424e+04	8.215451e+03	8.335187e+03	3.386879e-17	-inf	
4.000000e-01	2.000000e-01	1.868993e-03	6.665712e-03	-7.348717e-16	3.924470e-16	2.957835e+05	1.432630e+04	8.534705e-03	3.706424e+04	8.215451e+03	8.335187e+03	3.684528e-17	-inf	
6.000000e-01	2.000000e-01	1.868993e-03	6.665712e-03	0.000000e+00	1.028866e-15	2.957835e+05	1.432630e+04	8.534705e-03	3.706424e+04	8.215451e+03	8.335187e+03	4.550352e-17	-inf	
8.000000e-01	2.000000e-01	1.868993e-03	6.665712e-03	3.765308e-16	-6.168648e-16	2.957835e+05	1.432630e+04	8.534705e-03	3.706424e+04	8.215451e+03	8.335187e+03	3.196283e-17	-inf	
1.000000e+00	2.000000e-01	1.868993e-03	6.665712e-03	7.462404e-16	-3.683454e-16	2.957835e+05	1.432630e+04	8.534705e-03	3.706424e+04	8.215451e+03	8.335187e+03	3.680550e-17	-inf	
0.000000e+00	4.000000e-01	1.868993e-03	6.665712e-03	-1.255103e-15	0.000000e+00	2.957835e+05	1.432630e+04	8.534705e-03	3.706424e+04	8.215451e+03	8.335187e+03	5.550926e-17	-inf	
2.000000e-01	4.000000e-01	1.868993e-03	6.665712e-03	7.616632e-16	0.000000e+00	2.957835e+05	1.432630e+04	8.534705e-03	3.706424e+04	8.215451e+03	8.335187e+03	3.368598e-17	-inf	
4.000000e-01	4.000000e-01	1.868993e-03	6.665712e-03	3.066885e-16	0.000000e+00	2.957835e+05	1.432630e+04	8.534705e-03	3.706424e+04	8.215451e+03	8.335187e+03	1.356387e-17	-inf	
6.000000e-01	4.000000e-01	1.868993e-03	6.665712e-03	-9.747509e-16	-9.094947e-19	2.957835e+05	1.432630e+04	8.534705e-03	3.706424e+04	8.215451e+03	8.335187e+03	4.311020e-17	-inf	
8.000000e-01	4.000000e-01	1.868993e-03	6.665712e-03	-4.090452e-16	0.000000e+00	2.957835e+05	1.432630e+04	8.534705e-03	3.706424e+04	8.215451e+03	8.335187e+03	1.809079e-17	-inf	
1.000000e+00	4.000000e-01	1.868993e-03	6.665712e-03	0.000000e+00	0.000000e+00	2.957835e+05	1.432630e+04	8.534705e-03	3.706424e+04	8.215451e+03	8.335187e+03	0.000000e+00	-inf	
0.000000e+00	6.000000e-01	1.868993e-03	6.665712e-03	1.169155e-15	3.906280e-16	2.957835e+05	1.432630e+04	8.534705e-03	3.706424e+04	8.215451e+03	8.335187e+03	5.451784e-17	-inf	
2.000000e-01	6.000000e-01	1.868993e-03	6.665712e-03	4.062273e-17	1.818989e-18	2.957835e+05	1.432630e+04	8.534705e-03	3.706424e+04	8.215451e+03	8.335187e+03	1.798417e-18	-inf	
4.000000e-01	6.000000e-01	1.868993e-03	6.665712e-03	0.000000e+00	-3.924470e-16	2.957835e+05	1.432630e+04	8.534705e-03	3.706424e+04	8.215451e+03	8.335187e+03	1.735670e-17	-inf	
6.000000e-01	6.000000e-01	1.868993e-03	6.665712e-03	-4.062273e-17	-4.129106e-16	2.957835e+05	1.432630e+04	8.534705e-03	3.706424e+04	8.215451e+03	8.335187e+03	1.834991e-17	-inf	
8.000000e-01	6.000000e-01	1.868993e-03	6.665712e-03	7.566996e-16	-9.094947e-19	2.957835e+05	1.432630e+04	8.534705e-03	3.706424e+04	8.215451e+03	8.335187e+03	3.346648e-17	-inf	
1.000000e+00	6.000000e-01	1.868993e-03	6.665712e-03	1.256922e-15	-9.094947e-19	2.957835e+05	1.432630e+04	8.534705e-03	3.706424e+04	8.215451e+03	8.335187e+03	5.558972e-17	-inf	
0.000000e+00	8.000000e-01	1.868993e-03	6.665712e-03	-7.089511e-16	0.000000e+00	2.957835e+05	1.432630e+04	8.534705e-03	3.706424e+04	8.215451e+03	8.335187e+03	3.135469e-17	-inf	
2.000000e-01	8.000000e-01	1.868993e-03	6.665712e-03	-4.129106e-16	7.648850e-16	2.957835e+05	1.432630e+04	8.534705e-03	3.706424e+04	8.215451e+03	8.335187e+03	3.844290e-17	-inf	
4.000000e-01	8.000000e-01	1.868993e-03	6.665712e-03	-9.094947e-19	0.000000e+00	2.957835e+05	1.432630e+04	8.534705e-03	3.706424e+04	8.215451e+03	8.335187e+03	4.022410e-20	-inf	
6.000000e-01	8.000000e-01	1.868993e-03	6.665712e-03	0.000000e+00	-7.169092e-16	2.957835e+05	1.432630e+04	8.534705e-03	3.706424e+04	8.215451e+03	8.335187e+03	3.170665e-17	-inf	
8.000000e-01	8.000000e-01	1.868993e-03	6.665712e-03	0.000000e+00	3.867626e-16	2.957835e+05	1.432630e+04	8.534705e-03	3.706424e+04	8.215451e+03	8.335187e+03	1.710530e-17	-inf	
1.000000e+00	8.000000e-01	1.868993e-03	6.665712e-03	-1.233730e-15	-3.856258e-16	2.957835e+05	1.432630e+04	8.534705e-03	3.706424e+04	8.215451e+03	8.335187e+03	5.716733e-17	-inf	
0.000000e+00	1.000000e+00	1.868993e-03	6.665712e-03	1.818989e-18	-7.830749e-16	2.957835e+05	1.432630e+04	8.534705e-03	3.706424e+04	8.215451e+03	8.335187e+03	3.463305e-17	-inf	
2.000000e-01	1.000000e+00	1.868993e-03	6.665712e-03	0.000000e+00	0.000000e+00	2.957835e+05	1.432630e+04	8.534705e-03	3.706424e+04	8.215451e+03	8.335187e+03	0.000000e+00	-inf	
4.000000e-01	1.000000e+00	1.868993e-03	6.665712e-03	0.000000e+00	0.000000e+00	2.957835e+05	1.432630e+04	8.534705e-03	3.706424e+04	8.215451e+03	8.335187e+03	0.000000e+00	-inf	
6.000000e-01	1.000000e+00	1.868993e-03	6.665712e-03	4.113190e-16	-9.672476e-16	2.957835e+05	1.432630e+04	8.534705e-03	3.706424e+04	8.215451e+03	8.335187e+03	4.648560e-17	-inf	
8.000000e-01	1.000000e+00	1.868993e-03	6.665712e-03	0.000000e+00	4.542926e-16	2.957835e+05	1.432630e+04	8.534705e-03	3.706424e+04	8.215451e+03	8.335187e+03	2.009194e-17	-inf	
1.000000e+00	1.000000e+00	1.868993e-03	6.665712e-03	-8.208190e-16	8.594725e-17	2.957835e+05	1.432630e+04	8.534705e-03	3.706424e+04	8.215451e+03	8.335187e+03	3.650072e-17	-inf	
1	2	8	7
2	3	9	8
3	4	10	9
4	5	11	10
5	6	12	11
7	8	14	13
8	9	15	14
9	10	16	15
10	11	17	16
11	12	18	17
13	14	20	19
14	15	21	20
15	16	22	21
16	17	23	22
17	18	24	23
19	20	26	25
20	21	27	26
21	22	28	27
22	23	29	28
23	24	30	29
25	26	32	31
26	27	33	32
27	28	34	33
28	29	35	34
29	30	36	35
