TITLE = "Visualization of the volumetric solution"
VARIABLES = "x","y","Density[0]","Density[1]","Momentum_x","Momentum_y","Energy","Electronic_Energy","Total_Density","Pressure","Temperature","Tve","Mach","C<sub>p</sub>"
ZONE STRANDID=8588, SOLUTIONTIME=8.587e-05, NODES= 36, ELEMENTS= 25, DATAPACKING=POINT, ZONETYPE=FEQUADRILATERAL
0.000000e+00	0.000000e+00	1.890341e-03	6.644364e-03	0.000000e+00	0.000000e+00	2.957835e+05	1.465521e+04	8.534705e-03	3.726725e+04	8.272066e+03	8.402663e+03	0.000000e+00	-inf	
2.000000e-01	0.000000e+00	1.890341e-03	6.644364e-03	0.000000e+00	1.384251e-15	2.957835e+05	1.465521e+04	8.534705e-03	3.726725e+04	8.272066e+03	8.402663e+03	6.106543e-17	-inf	
4.000000e-01	0.000000e+00	1.890341e-03	6.644364e-03	0.000000e+00	-1.100943e-15	2.957835e+05	1.465521e+04	8.534705e-03	3.726725e+04	8.272066e+03	8.402663e+03	4.856748e-17	-inf	
6.000000e-01	0.000000e+00	1.890341e-03	6.644364e-03	0.000000e+00	-1.078661e-15	2.957835e+05	1.465521e+04	8.534705e-03	3.726725e+04	8.272066e+03	8.402663e+03	4.758449e-17	-inf	
8.000000e-01	0.000000e+00	1.890341e-03	6.644364e-03	3.412879e-16	0.000000e+00	2.957835e+05	1.465521e+04	8.534705e-03	3.726725e+04	8.272066e+03	8.402663e+03	1.505572e-17	-inf	
1.000000e+00	0.000000e+00	1.890341e-03	6.644364e-03	6.548362e-16	-1.164153e-16	2.957835e+05	1.465521e+04	8.534705e-03	3.726725e+04	8.272066e+03	8.402663e+03	2.934067e-17	-inf	
0.000000e+00	2.000000e-01	1.890341e-03	6.644364e-03	0.000000e+00	0.000000e+00	2.957835e+05	1.465521e+04	8.534705e-03	3.726725e+04	8.272066e+03	8.402663e+03	0.000000e+00	-inf	
2.000000e-01	2.000000e-01	1.890341e-03	6.644364e-03	-6.921255e-16	-1.818989e-18	2.957835e+05	1.465521e+04	8.534705e-03	3.726725e+04	8.272066e+03	8.402663e+03	3.053282e-17	-inf	
4.000000e-01	2.000000e-01	1.890341e-03	6.644364e-03	-6.912160e-16	3.431069e-16	2.957835e+05	1.465521e+04	8.534705e-03	3.726725e+04	8.272066e+03	8.402663e+03	3.404255e-17	-inf	
6.000000e-01	2.000000e-01	1.890341e-03	6.644364e-03	0.000000e+00	8.985808e-16	2.957835e+05	1.465521e+04	8.534705e-03	3.726725e+04	8.272066e+03	8.402663e+03	3.964037e-17	-inf	
8.000000e-01	2.000000e-01	1.890341e-03	6.644364e-03	3.262812e-16	-5.391030e-16	2.957835e+05	1.465521e+04	8.534705e-03	3.726725e+04	8.272066e+03	8.402663e+03	2.779879e-17	-inf	
1.000000e+00	2.000000e-01	1.890341e-03	6.644364e-03	6.434675e-16	-3.221885e-16	2.957835e+05	1.465521e+04	8.534705e-03	3.726725e+04	8.272066e+03	8.402663e+03	3.174571e-17	-inf	
0.000000e+00	4.000000e-01	1.890341e-03	6.644364e-03	-1.258286e-15	0.000000e+00	2.957835e+05	1.465521e+04	8.534705e-03	3.726725e+04	8.272066e+03	8.402663e+03	5.550856e-17	-inf	
2.000000e-01	4.000000e-01	1.890341e-03	6.644364e-03	6.917485e-16	0.000000e+00	2.957835e+05	1.465521e+04	8.534705e-03	3.726725e+04	8.272066e+03	8.402663e+03	3.051609e-17	-inf	
4.000000e-01	4.000000e-01	1.890341e-03	6.644364e-03	2.686061e-16	0.000000e+00	2.957835e+05	1.465521e+04	8.534705e-03	3.726725e+04	8.272066e+03	8.402663e+03	1.184940e-17	-inf	
6.000000e-01	4.000000e-01	1.890341e-03	6.644364e-03	-8.465122e-16	-9.094947e-19	2.957835e+05	1.465521e+04	8.534705e-03	3.726725e+04	8.272066e+03	8.402663e+03	3.734342e-17	-inf	
8.000000e-01	4.000000e-01	1.890341e-03	6.644364e-03	-3.551577e-16	0.000000e+00	2.957835e+05	1.465521e+04	8.534705e-03	3.726725e+04	8.272066e+03	8.402663e+03	1.566758e-17	-inf	
1.000000e+00	4.000000e-01	1.890341e-03	6.644364e-03	0.000000e+00	0.000000e+00	2.957835e+05	1.465521e+04	8.534705e-03	3.726725e+04	8.272066e+03	8.402663e+03	0.000000e+00	-inf	
0.000000e+00	6.000000e-01	1.890341e-03	6.644364e-03	1.100943e-15	3.412879e-16	2.957835e+05	1.465521e+04	8.534705e-03	3.726725e+04	8.272066e+03	8.402663e+03	5.084756e-17	-inf	
2.000000e-01	6.000000e-01	1.890341e-03	6.644364e-03	2.630361e-17	1.818989e-18	2.957835e+05	1.465521e+04	8.534705e-03	3.726725e+04	8.272066e+03	8.402663e+03	1.163140e-18	-inf	
4.000000e-01	6.000000e-01	1.890341e-03	6.644364e-03	0.000000e+00	-3.431069e-16	2.957835e+05	1.465521e+04	8.534705e-03	3.726725e+04	8.272066e+03	8.402663e+03	1.513596e-17	-inf	
6.000000e-01	6.000000e-01	1.890341e-03	6.644364e-03	-2.630361e-17	-3.610694e-16	2.957835e+05	1.465521e+04	8.534705e-03	3.726725e+04	8.272066e+03	8.402663e+03	1.597058e-17	-inf	
8.000000e-01	6.000000e-01	1.890341e-03	6.644364e-03	5.761649e-16	-9.094947e-19	2.957835e+05	1.465521e+04	8.534705e-03	3.726725e+04	8.272066e+03	8.402663e+03	2.541721e-17	-inf	
1.000000e+00	6.000000e-01	1.890341e-03	6.644364e-03	1.253738e-15	-9.094947e-19	2.957835e+05	1.465521e+04	8.534705e-03	3.726725e+04	8.272066e+03	8.402663e+03	5.530796e-17	-inf	
0.000000e+00	8.000000e-01	1.890341e-03	6.644364e-03	-6.052687e-16	0.000000e+00	2.957835e+05	1.465521e+04	8.534705e-03	3.726725e+04	8.272066e+03	8.402663e+03	2.670108e-17	-inf	
2.000000e-01	8.000000e-01	1.890341e-03	6.644364e-03	-3.610694e-16	6.912160e-16	2.957835e+05	1.465521e+04	8.534705e-03	3.726725e+04	8.272066e+03	8.402663e+03	3.440220e-17	-inf	
4.000000e-01	8.000000e-01	1.890341e-03	6.644364e-03	-9.094947e-19	0.000000e+00	2.957835e+05	1.465521e+04	8.534705e-03	3.726725e+04	8.272066e+03	8.402663e+03	4.012183e-20	-inf	
6.000000e-01	8.000000e-01	1.890341e-03	6.644364e-03	0.000000e+00	-6.780283e-16	2.957835e+05	1.465521e+04	8.534705e-03	3.726725e+04	8.272066e+03	8.402663e+03	2.991083e-17	-inf	
8.000000e-01	8.000000e-01	1.890341e-03	6.644364e-03	0.000000e+00	3.365130e-16	2.957835e+05	1.465521e+04	8.534705e-03	3.726725e+04	8.272066e+03	8.402663e+03	1.484508e-17	-inf	
1.000000e+00	8.000000e-01	1.890341e-03	6.644364e-03	-1.076842e-15	-3.317382e-16	2.957835e+05	1.465521e+04	8.534705e-03	3.726725e+04	8.272066e+03	8.402663e+03	4.970735e-17	-inf	
0.000000e+00	1.000000e+00	1.890341e-03	6.644364e-03	1.818989e-18	-6.843948e-16	2.957835e+05	1.465521e+04	8.534705e-03	3.726725e+04	8.272066e+03	8.402663e+03	3.019179e-17	-inf	
2.000000e-01	1.000000e+00	1.890341e-03	6.644364e-03	0.000000e+00	0.000000e+00	2.957835e+05	1.465521e+04	8.534705e-03	3.726725e+04	8.272066e+03	8.402663e+03	0.000000e+00	-inf	
4.000000e-01	1.000000e+00	1.890341e-03	6.644364e-03	0.000000e+00	0.000000e+00	2.957835e+05	1.465521e+04	8.534705e-03	3.726725e+04	8.272066e+03	8.402663e+03	0.000000e+00	-inf	
6.000000e-01	1.000000e+00	1.890341e-03	6.644364e-03	3.574314e-16	-8.199095e-16	2.957835e+05	1.465521e+04	8.534705e-03	3.726725e+04	8.272066e+03	8.402663e+03	3.945735e-17	-inf	
8.000000e-01	1.000000e+00	1.890341e-03	6.644364e-03	0.000000e+00	4.324647e-16	2.957835e+05	1.465521e+04	8.534705e-03	3.726725e+04	8.272066e+03	8.402663e+03	1.907793e-17	-inf	
1.000000e+00	1.000000e+00	1.890341e-03	6.644364e-03	-7.130438e-16	8.594725e-17	2.957835e+05	1.465521e+04	8.534705e-03	3.726725e+04	8.272066e+03	8.402663e+03	3.168320e-17	-inf	
1	2	8	7
2	3	9	8
3	4	10	9
4	5	11	10
5	6	12	11
7	8	14	13
8	9	15	14
9	10	16	15
10	11	17	16
11	12	18	17
13	14	20	19
14	15	21	20
15	16	22	21
16	17	23	22
17	18	24	23
19	20	26	25
20	21	27	26
21	22	28	27
22	23	29	28
23	24	30	29
25	26	32	31
26	27	33	32
27	28	34	33
28	29	35	34
29	30	36	35
