TITLE = "Visualization of the volumetric solution"
VARIABLES = "x","y","Density[0]","Density[1]","Momentum_x","Momentum_y","Energy","Electronic_Energy","Total_Density","Pressure","Temperature","Tve","Mach","C<sub>p</sub>"
ZONE STRANDID=278, SOLUTIONTIME=2.77e-06, NODES= 36, ELEMENTS= 25, DATAPACKING=POINT, ZONETYPE=FEQUADRILATERAL
0.000000e+00	0.000000e+00	3.013025e-03	5.521680e-03	0.000000e+00	0.000000e+00	2.957835e+05	4.098603e+04	8.534705e-03	4.195739e+04	1.005696e+04	1.328165e+04	0.000000e+00	-inf	
2.000000e-01	0.000000e+00	3.013025e-03	5.521680e-03	0.000000e+00	4.911271e-17	2.957835e+05	4.098603e+04	8.534705e-03	4.195739e+04	1.005696e+04	1.328165e+04	2.062588e-18	-inf	
4.000000e-01	0.000000e+00	3.013025e-03	5.521680e-03	0.000000e+00	-3.547029e-17	2.957835e+05	4.098603e+04	8.534705e-03	4.195739e+04	1.005696e+04	1.328165e+04	1.489647e-18	-inf	
6.000000e-01	0.000000e+00	3.013025e-03	5.521680e-03	0.000000e+00	-4.911271e-17	2.957835e+05	4.098603e+04	8.534705e-03	4.195739e+04	1.005696e+04	1.328165e+04	2.062588e-18	-inf	
8.000000e-01	0.000000e+00	3.013025e-03	5.521680e-03	-1.818989e-18	0.000000e+00	2.957835e+05	4.098603e+04	8.534705e-03	4.195739e+04	1.005696e+04	1.328165e+04	7.639215e-20	-inf	
1.000000e+00	0.000000e+00	3.013025e-03	5.521680e-03	-2.728484e-18	-4.547474e-18	2.957835e+05	4.098603e+04	8.534705e-03	4.195739e+04	1.005696e+04	1.328165e+04	2.227195e-19	-inf	
0.000000e+00	2.000000e-01	3.013025e-03	5.521680e-03	0.000000e+00	0.000000e+00	2.957835e+05	4.098603e+04	8.534705e-03	4.195739e+04	1.005696e+04	1.328165e+04	0.000000e+00	-inf	
2.000000e-01	2.000000e-01	3.013025e-03	5.521680e-03	-2.773959e-17	-1.818989e-18	2.957835e+05	4.098603e+04	8.534705e-03	4.195739e+04	1.005696e+04	1.328165e+04	1.167482e-18	-inf	
4.000000e-01	2.000000e-01	3.013025e-03	5.521680e-03	-2.364686e-17	0.000000e+00	2.957835e+05	4.098603e+04	8.534705e-03	4.195739e+04	1.005696e+04	1.328165e+04	9.930979e-19	-inf	
6.000000e-01	2.000000e-01	3.013025e-03	5.521680e-03	0.000000e+00	2.046363e-17	2.957835e+05	4.098603e+04	8.534705e-03	4.195739e+04	1.005696e+04	1.328165e+04	8.594117e-19	-inf	
8.000000e-01	2.000000e-01	3.013025e-03	5.521680e-03	0.000000e+00	-2.501110e-17	2.957835e+05	4.098603e+04	8.534705e-03	4.195739e+04	1.005696e+04	1.328165e+04	1.050392e-18	-inf	
1.000000e+00	2.000000e-01	3.013025e-03	5.521680e-03	1.818989e-18	0.000000e+00	2.957835e+05	4.098603e+04	8.534705e-03	4.195739e+04	1.005696e+04	1.328165e+04	7.639215e-20	-inf	
0.000000e+00	4.000000e-01	3.013025e-03	5.521680e-03	-6.639311e-17	0.000000e+00	2.957835e+05	4.098603e+04	8.534705e-03	4.195739e+04	1.005696e+04	1.328165e+04	2.788313e-18	-inf	
2.000000e-01	4.000000e-01	3.013025e-03	5.521680e-03	3.191154e-17	0.000000e+00	2.957835e+05	4.098603e+04	8.534705e-03	4.195739e+04	1.005696e+04	1.328165e+04	1.340190e-18	-inf	
4.000000e-01	4.000000e-01	3.013025e-03	5.521680e-03	-1.037996e-17	0.000000e+00	2.957835e+05	4.098603e+04	8.534705e-03	4.195739e+04	1.005696e+04	1.328165e+04	4.359275e-19	-inf	
6.000000e-01	4.000000e-01	3.013025e-03	5.521680e-03	-2.182787e-17	-9.094947e-19	2.957835e+05	4.098603e+04	8.534705e-03	4.195739e+04	1.005696e+04	1.328165e+04	9.175012e-19	-inf	
8.000000e-01	4.000000e-01	3.013025e-03	5.521680e-03	2.273737e-18	0.000000e+00	2.957835e+05	4.098603e+04	8.534705e-03	4.195739e+04	1.005696e+04	1.328165e+04	9.549018e-20	-inf	
1.000000e+00	4.000000e-01	3.013025e-03	5.521680e-03	0.000000e+00	0.000000e+00	2.957835e+05	4.098603e+04	8.534705e-03	4.195739e+04	1.005696e+04	1.328165e+04	0.000000e+00	-inf	
0.000000e+00	6.000000e-01	3.013025e-03	5.521680e-03	3.547029e-17	-1.818989e-18	2.957835e+05	4.098603e+04	8.534705e-03	4.195739e+04	1.005696e+04	1.328165e+04	1.491604e-18	-inf	
2.000000e-01	6.000000e-01	3.013025e-03	5.521680e-03	-1.205788e-18	1.818989e-18	2.957835e+05	4.098603e+04	8.534705e-03	4.195739e+04	1.005696e+04	1.328165e+04	9.165216e-20	-inf	
4.000000e-01	6.000000e-01	3.013025e-03	5.521680e-03	0.000000e+00	0.000000e+00	2.957835e+05	4.098603e+04	8.534705e-03	4.195739e+04	1.005696e+04	1.328165e+04	0.000000e+00	-inf	
6.000000e-01	6.000000e-01	3.013025e-03	5.521680e-03	1.205788e-18	2.273737e-18	2.957835e+05	4.098603e+04	8.534705e-03	4.195739e+04	1.005696e+04	1.328165e+04	1.080867e-19	-inf	
8.000000e-01	6.000000e-01	3.013025e-03	5.521680e-03	-1.364242e-18	-9.094947e-19	2.957835e+05	4.098603e+04	8.534705e-03	4.195739e+04	1.005696e+04	1.328165e+04	6.885895e-20	-inf	
1.000000e+00	6.000000e-01	3.013025e-03	5.521680e-03	4.456524e-17	-9.094947e-19	2.957835e+05	4.098603e+04	8.534705e-03	4.195739e+04	1.005696e+04	1.328165e+04	1.871997e-18	-inf	
0.000000e+00	8.000000e-01	3.013025e-03	5.521680e-03	2.728484e-18	0.000000e+00	2.957835e+05	4.098603e+04	8.534705e-03	4.195739e+04	1.005696e+04	1.328165e+04	1.145882e-19	-inf	
2.000000e-01	8.000000e-01	3.013025e-03	5.521680e-03	2.273737e-18	2.683009e-17	2.957835e+05	4.098603e+04	8.534705e-03	4.195739e+04	1.005696e+04	1.328165e+04	1.130823e-18	-inf	
4.000000e-01	8.000000e-01	3.013025e-03	5.521680e-03	-9.094947e-19	0.000000e+00	2.957835e+05	4.098603e+04	8.534705e-03	4.195739e+04	1.005696e+04	1.328165e+04	3.819607e-20	-inf	
6.000000e-01	8.000000e-01	3.013025e-03	5.521680e-03	0.000000e+00	-1.682565e-17	2.957835e+05	4.098603e+04	8.534705e-03	4.195739e+04	1.005696e+04	1.328165e+04	7.066274e-19	-inf	
8.000000e-01	8.000000e-01	3.013025e-03	5.521680e-03	0.000000e+00	0.000000e+00	2.957835e+05	4.098603e+04	8.534705e-03	4.195739e+04	1.005696e+04	1.328165e+04	0.000000e+00	-inf	
1.000000e+00	8.000000e-01	3.013025e-03	5.521680e-03	-4.729372e-17	-9.094947e-19	2.957835e+05	4.098603e+04	8.534705e-03	4.195739e+04	1.005696e+04	1.328165e+04	1.986563e-18	-inf	
0.000000e+00	1.000000e+00	3.013025e-03	5.521680e-03	1.818989e-18	1.818989e-18	2.957835e+05	4.098603e+04	8.534705e-03	4.195739e+04	1.005696e+04	1.328165e+04	1.080348e-19	-inf	
2.000000e-01	1.000000e+00	3.013025e-03	5.521680e-03	0.000000e+00	0.000000e+00	2.957835e+05	4.098603e+04	8.534705e-03	4.195739e+04	1.005696e+04	1.328165e+04	0.000000e+00	-inf	
4.000000e-01	1.000000e+00	3.013025e-03	5.521680e-03	0.000000e+00	0.000000e+00	2.957835e+05	4.098603e+04	8.534705e-03	4.195739e+04	1.005696e+04	1.328165e+04	0.000000e+00	-inf	
6.000000e-01	1.000000e+00	3.013025e-03	5.521680e-03	0.000000e+00	-4.729372e-17	2.957835e+05	4.098603e+04	8.534705e-03	4.195739e+04	1.005696e+04	1.328165e+04	1.986196e-18	-inf	
8.000000e-01	1.000000e+00	3.013025e-03	5.521680e-03	0.000000e+00	-1.818989e-17	2.957835e+05	4.098603e+04	8.534705e-03	4.195739e+04	1.005696e+04	1.328165e+04	7.639215e-19	-inf	
1.000000e+00	1.000000e+00	3.013025e-03	5.521680e-03	1.818989e-18	1.909939e-17	2.957835e+05	4.098603e+04	8.534705e-03	4.195739e+04	1.005696e+04	1.328165e+04	8.057471e-19	-inf	
1	2	8	7
2	3	9	8
3	4	10	9
4	5	11	10
5	6	12	11
7	8	14	13
8	9	15	14
9	10	16	15
10	11	17	16
11	12	18	17
13	14	20	19
14	15	21	20
15	16	22	21
16	17	23	22
17	18	24	23
19	20	26	25
20	21	27	26
21	22	28	27
22	23	29	28
23	24	30	29
25	26	32	31
26	27	33	32
27	28	34	33
28	29	35	34
29	30	36	35
