TITLE = "Visualization of the volumetric solution"
VARIABLES = "x","y","Density[0]","Density[1]","Momentum_x","Momentum_y","Energy","Electronic_Energy","Total_Density","Pressure","Temperature","Tve","Mach","C<sub>p</sub>"
ZONE STRANDID=6481, SOLUTIONTIME=6.48e-05, NODES= 36, ELEMENTS= 25, DATAPACKING=POINT, ZONETYPE=FEQUADRILATERAL
0.000000e+00	0.000000e+00	1.954307e-03	6.580398e-03	0.000000e+00	0.000000e+00	2.957835e+05	1.566696e+04	8.534705e-03	3.785642e+04	8.438402e+03	8.609374e+03	0.000000e+00	-inf	
2.000000e-01	0.000000e+00	1.954307e-03	6.580398e-03	0.000000e+00	1.201443e-15	2.957835e+05	1.566696e+04	8.534705e-03	3.785642e+04	8.438402e+03	8.609374e+03	5.261618e-17	-inf	
4.000000e-01	0.000000e+00	1.954307e-03	6.580398e-03	0.000000e+00	-9.149517e-16	2.957835e+05	1.566696e+04	8.534705e-03	3.785642e+04	8.438402e+03	8.609374e+03	4.006955e-17	-inf	
6.000000e-01	0.000000e+00	1.954307e-03	6.580398e-03	0.000000e+00	-7.025847e-16	2.957835e+05	1.566696e+04	8.534705e-03	3.785642e+04	8.438402e+03	8.609374e+03	3.076911e-17	-inf	
8.000000e-01	0.000000e+00	1.954307e-03	6.580398e-03	1.518856e-16	0.000000e+00	2.957835e+05	1.566696e+04	8.534705e-03	3.785642e+04	8.438402e+03	8.609374e+03	6.651704e-18	-inf	
1.000000e+00	0.000000e+00	1.954307e-03	6.580398e-03	2.282832e-16	3.228706e-17	2.957835e+05	1.566696e+04	8.534705e-03	3.785642e+04	8.438402e+03	8.609374e+03	1.009697e-17	-inf	
0.000000e+00	2.000000e-01	1.954307e-03	6.580398e-03	0.000000e+00	0.000000e+00	2.957835e+05	1.566696e+04	8.534705e-03	3.785642e+04	8.438402e+03	8.609374e+03	0.000000e+00	-inf	
2.000000e-01	2.000000e-01	1.954307e-03	6.580398e-03	-5.088623e-16	-1.818989e-18	2.957835e+05	1.566696e+04	8.534705e-03	3.785642e+04	8.438402e+03	8.609374e+03	2.228534e-17	-inf	
4.000000e-01	2.000000e-01	1.954307e-03	6.580398e-03	-5.998118e-16	1.537046e-16	2.957835e+05	1.566696e+04	8.534705e-03	3.785642e+04	8.438402e+03	8.609374e+03	2.711702e-17	-inf	
6.000000e-01	2.000000e-01	1.954307e-03	6.580398e-03	0.000000e+00	5.081802e-16	2.957835e+05	1.566696e+04	8.534705e-03	3.785642e+04	8.438402e+03	8.609374e+03	2.225533e-17	-inf	
8.000000e-01	2.000000e-01	1.954307e-03	6.580398e-03	1.407443e-16	-3.547029e-16	2.957835e+05	1.566696e+04	8.534705e-03	3.785642e+04	8.438402e+03	8.609374e+03	1.671212e-17	-inf	
1.000000e+00	2.000000e-01	1.954307e-03	6.580398e-03	2.346496e-16	-1.134595e-16	2.957835e+05	1.566696e+04	8.534705e-03	3.785642e+04	8.438402e+03	8.609374e+03	1.141454e-17	-inf	
0.000000e+00	4.000000e-01	1.954307e-03	6.580398e-03	-1.267381e-15	0.000000e+00	2.957835e+05	1.566696e+04	8.534705e-03	3.785642e+04	8.438402e+03	8.609374e+03	5.550389e-17	-inf	
2.000000e-01	4.000000e-01	1.954307e-03	6.580398e-03	4.424964e-16	0.000000e+00	2.957835e+05	1.566696e+04	8.534705e-03	3.785642e+04	8.438402e+03	8.609374e+03	1.937876e-17	-inf	
4.000000e-01	4.000000e-01	1.954307e-03	6.580398e-03	1.221269e-16	0.000000e+00	2.957835e+05	1.566696e+04	8.534705e-03	3.785642e+04	8.438402e+03	8.609374e+03	5.348447e-18	-inf	
6.000000e-01	4.000000e-01	1.954307e-03	6.580398e-03	-4.561116e-16	-9.094947e-19	2.957835e+05	1.566696e+04	8.534705e-03	3.785642e+04	8.438402e+03	8.609374e+03	1.997507e-17	-inf	
8.000000e-01	4.000000e-01	1.954307e-03	6.580398e-03	-1.587068e-16	0.000000e+00	2.957835e+05	1.566696e+04	8.534705e-03	3.785642e+04	8.438402e+03	8.609374e+03	6.950434e-18	-inf	
1.000000e+00	4.000000e-01	1.954307e-03	6.580398e-03	0.000000e+00	0.000000e+00	2.957835e+05	1.566696e+04	8.534705e-03	3.785642e+04	8.438402e+03	8.609374e+03	0.000000e+00	-inf	
0.000000e+00	6.000000e-01	1.954307e-03	6.580398e-03	9.149517e-16	1.518856e-16	2.957835e+05	1.566696e+04	8.534705e-03	3.785642e+04	8.438402e+03	8.609374e+03	4.061790e-17	-inf	
2.000000e-01	6.000000e-01	1.954307e-03	6.580398e-03	1.119584e-17	1.818989e-18	2.957835e+05	1.566696e+04	8.534705e-03	3.785642e+04	8.438402e+03	8.609374e+03	4.967415e-19	-inf	
4.000000e-01	6.000000e-01	1.954307e-03	6.580398e-03	0.000000e+00	-1.537046e-16	2.957835e+05	1.566696e+04	8.534705e-03	3.785642e+04	8.438402e+03	8.609374e+03	6.731366e-18	-inf	
6.000000e-01	6.000000e-01	1.954307e-03	6.580398e-03	-1.119584e-17	-1.587068e-16	2.957835e+05	1.566696e+04	8.534705e-03	3.785642e+04	8.438402e+03	8.609374e+03	6.967707e-18	-inf	
8.000000e-01	6.000000e-01	1.954307e-03	6.580398e-03	1.596163e-16	-9.094947e-19	2.957835e+05	1.566696e+04	8.534705e-03	3.785642e+04	8.438402e+03	8.609374e+03	6.990378e-18	-inf	
1.000000e+00	6.000000e-01	1.954307e-03	6.580398e-03	9.131327e-16	-9.094947e-19	2.957835e+05	1.566696e+04	8.534705e-03	3.785642e+04	8.438402e+03	8.609374e+03	3.998991e-17	-inf	
0.000000e+00	8.000000e-01	1.954307e-03	6.580398e-03	-2.123670e-16	0.000000e+00	2.957835e+05	1.566696e+04	8.534705e-03	3.785642e+04	8.438402e+03	8.609374e+03	9.300437e-18	-inf	
2.000000e-01	8.000000e-01	1.954307e-03	6.580398e-03	-1.587068e-16	5.079528e-16	2.957835e+05	1.566696e+04	8.534705e-03	3.785642e+04	8.438402e+03	8.609374e+03	2.330590e-17	-inf	
4.000000e-01	8.000000e-01	1.954307e-03	6.580398e-03	-9.094947e-19	0.000000e+00	2.957835e+05	1.566696e+04	8.534705e-03	3.785642e+04	8.438402e+03	8.609374e+03	3.983057e-20	-inf	
6.000000e-01	8.000000e-01	1.954307e-03	6.580398e-03	0.000000e+00	-5.802576e-16	2.957835e+05	1.566696e+04	8.534705e-03	3.785642e+04	8.438402e+03	8.609374e+03	2.541190e-17	-inf	
8.000000e-01	8.000000e-01	1.954307e-03	6.580398e-03	0.000000e+00	1.509761e-16	2.957835e+05	1.566696e+04	8.534705e-03	3.785642e+04	8.438402e+03	8.609374e+03	6.611874e-18	-inf	
1.000000e+00	8.000000e-01	1.954307e-03	6.580398e-03	-7.007657e-16	-1.386979e-16	2.957835e+05	1.566696e+04	8.534705e-03	3.785642e+04	8.438402e+03	8.609374e+03	3.128479e-17	-inf	
0.000000e+00	1.000000e+00	1.954307e-03	6.580398e-03	1.818989e-18	-3.055902e-16	2.957835e+05	1.566696e+04	8.534705e-03	3.785642e+04	8.438402e+03	8.609374e+03	1.338331e-17	-inf	
2.000000e-01	1.000000e+00	1.954307e-03	6.580398e-03	0.000000e+00	0.000000e+00	2.957835e+05	1.566696e+04	8.534705e-03	3.785642e+04	8.438402e+03	8.609374e+03	0.000000e+00	-inf	
4.000000e-01	1.000000e+00	1.954307e-03	6.580398e-03	0.000000e+00	0.000000e+00	2.957835e+05	1.566696e+04	8.534705e-03	3.785642e+04	8.438402e+03	8.609374e+03	0.000000e+00	-inf	
6.000000e-01	1.000000e+00	1.954307e-03	6.580398e-03	1.609806e-16	-4.533831e-16	2.957835e+05	1.566696e+04	8.534705e-03	3.785642e+04	8.438402e+03	8.609374e+03	2.107000e-17	-inf	
8.000000e-01	1.000000e+00	1.954307e-03	6.580398e-03	0.000000e+00	2.191882e-16	2.957835e+05	1.566696e+04	8.534705e-03	3.785642e+04	8.438402e+03	8.609374e+03	9.599166e-18	-inf	
1.000000e+00	1.000000e+00	1.954307e-03	6.580398e-03	-3.201421e-16	-6.457412e-17	2.957835e+05	1.566696e+04	8.534705e-03	3.785642e+04	8.438402e+03	8.609374e+03	1.430272e-17	-inf	
1	2	8	7
2	3	9	8
3	4	10	9
4	5	11	10
5	6	12	11
7	8	14	13
8	9	15	14
9	10	16	15
10	11	17	16
11	12	18	17
13	14	20	19
14	15	21	20
15	16	22	21
16	17	23	22
17	18	24	23
19	20	26	25
20	21	27	26
21	22	28	27
22	23	29	28
23	24	30	29
25	26	32	31
26	27	33	32
27	28	34	33
28	29	35	34
29	30	36	35
