TITLE = "Visualization of the volumetric solution"
VARIABLES = "x","y","Density[0]","Density[1]","Momentum_x","Momentum_y","Energy","Electronic_Energy","Total_Density","Pressure","Temperature","Tve","Mach","C<sub>p</sub>"
ZONE STRANDID=4618, SOLUTIONTIME=4.617e-05, NODES= 36, ELEMENTS= 25, DATAPACKING=POINT, ZONETYPE=FEQUADRILATERAL
0.000000e+00	0.000000e+00	2.035443e-03	6.499262e-03	0.000000e+00	0.000000e+00	2.957835e+05	1.703233e+04	8.534705e-03	3.854729e+04	8.638772e+03	8.884180e+03	0.000000e+00	-inf	
2.000000e-01	0.000000e+00	2.035443e-03	6.499262e-03	0.000000e+00	9.613359e-16	2.957835e+05	1.703233e+04	8.534705e-03	3.854729e+04	8.638772e+03	8.884180e+03	4.175152e-17	-inf	
4.000000e-01	0.000000e+00	2.035443e-03	6.499262e-03	0.000000e+00	-7.544259e-16	2.957835e+05	1.703233e+04	8.534705e-03	3.854729e+04	8.638772e+03	8.884180e+03	3.276527e-17	-inf	
6.000000e-01	0.000000e+00	2.035443e-03	6.499262e-03	0.000000e+00	-3.783498e-16	2.957835e+05	1.703233e+04	8.534705e-03	3.854729e+04	8.638772e+03	8.884180e+03	1.643201e-17	-inf	
8.000000e-01	0.000000e+00	2.035443e-03	6.499262e-03	1.298304e-16	0.000000e+00	2.957835e+05	1.703233e+04	8.534705e-03	3.854729e+04	8.638772e+03	8.884180e+03	5.638628e-18	-inf	
1.000000e+00	0.000000e+00	2.035443e-03	6.499262e-03	2.073648e-16	2.519300e-16	2.957835e+05	1.703233e+04	8.534705e-03	3.854729e+04	8.638772e+03	8.884180e+03	1.417126e-17	-inf	
0.000000e+00	2.000000e-01	2.035443e-03	6.499262e-03	0.000000e+00	0.000000e+00	2.957835e+05	1.703233e+04	8.534705e-03	3.854729e+04	8.638772e+03	8.884180e+03	0.000000e+00	-inf	
2.000000e-01	2.000000e-01	2.035443e-03	6.499262e-03	-3.815330e-16	-1.818989e-18	2.957835e+05	1.703233e+04	8.534705e-03	3.854729e+04	8.638772e+03	8.884180e+03	1.657045e-17	-inf	
4.000000e-01	2.000000e-01	2.035443e-03	6.499262e-03	-4.797585e-16	1.316494e-16	2.957835e+05	1.703233e+04	8.534705e-03	3.854729e+04	8.638772e+03	8.884180e+03	2.160650e-17	-inf	
6.000000e-01	2.000000e-01	2.035443e-03	6.499262e-03	0.000000e+00	3.210516e-16	2.957835e+05	1.703233e+04	8.534705e-03	3.854729e+04	8.638772e+03	8.884180e+03	1.394351e-17	-inf	
8.000000e-01	2.000000e-01	2.035443e-03	6.499262e-03	1.155058e-16	-2.503384e-16	2.957835e+05	1.703233e+04	8.534705e-03	3.854729e+04	8.638772e+03	8.884180e+03	1.197389e-17	-inf	
1.000000e+00	2.000000e-01	2.035443e-03	6.499262e-03	2.164597e-16	-1.034550e-16	2.957835e+05	1.703233e+04	8.534705e-03	3.854729e+04	8.638772e+03	8.884180e+03	1.041955e-17	-inf	
0.000000e+00	4.000000e-01	2.035443e-03	6.499262e-03	-1.040007e-15	0.000000e+00	2.957835e+05	1.703233e+04	8.534705e-03	3.854729e+04	8.638772e+03	8.884180e+03	4.516827e-17	-inf	
2.000000e-01	4.000000e-01	2.035443e-03	6.499262e-03	3.474636e-16	0.000000e+00	2.957835e+05	1.703233e+04	8.534705e-03	3.854729e+04	8.638772e+03	8.884180e+03	1.509060e-17	-inf	
4.000000e-01	4.000000e-01	2.035443e-03	6.499262e-03	9.553353e-17	0.000000e+00	2.957835e+05	1.703233e+04	8.534705e-03	3.854729e+04	8.638772e+03	8.884180e+03	4.149091e-18	-inf	
6.000000e-01	4.000000e-01	2.035443e-03	6.499262e-03	-2.708020e-16	-9.094947e-19	2.957835e+05	1.703233e+04	8.534705e-03	3.854729e+04	8.638772e+03	8.884180e+03	1.176120e-17	-inf	
8.000000e-01	4.000000e-01	2.035443e-03	6.499262e-03	-1.361968e-16	0.000000e+00	2.957835e+05	1.703233e+04	8.534705e-03	3.854729e+04	8.638772e+03	8.884180e+03	5.915128e-18	-inf	
1.000000e+00	4.000000e-01	2.035443e-03	6.499262e-03	0.000000e+00	0.000000e+00	2.957835e+05	1.703233e+04	8.534705e-03	3.854729e+04	8.638772e+03	8.884180e+03	0.000000e+00	-inf	
0.000000e+00	6.000000e-01	2.035443e-03	6.499262e-03	7.544259e-16	1.298304e-16	2.957835e+05	1.703233e+04	8.534705e-03	3.854729e+04	8.638772e+03	8.884180e+03	3.324691e-17	-inf	
2.000000e-01	6.000000e-01	2.035443e-03	6.499262e-03	-2.789380e-17	1.818989e-18	2.957835e+05	1.703233e+04	8.534705e-03	3.854729e+04	8.638772e+03	8.884180e+03	1.214021e-18	-inf	
4.000000e-01	6.000000e-01	2.035443e-03	6.499262e-03	0.000000e+00	-1.316494e-16	2.957835e+05	1.703233e+04	8.534705e-03	3.854729e+04	8.638772e+03	8.884180e+03	5.717628e-18	-inf	
6.000000e-01	6.000000e-01	2.035443e-03	6.499262e-03	2.789380e-17	-1.336957e-16	2.957835e+05	1.703233e+04	8.534705e-03	3.854729e+04	8.638772e+03	8.884180e+03	5.931533e-18	-inf	
8.000000e-01	6.000000e-01	2.035443e-03	6.499262e-03	1.371063e-16	-9.094947e-19	2.957835e+05	1.703233e+04	8.534705e-03	3.854729e+04	8.638772e+03	8.884180e+03	5.954759e-18	-inf	
1.000000e+00	6.000000e-01	2.035443e-03	6.499262e-03	5.425136e-16	-9.094947e-19	2.957835e+05	1.703233e+04	8.534705e-03	3.854729e+04	8.638772e+03	8.884180e+03	2.356180e-17	-inf	
0.000000e+00	8.000000e-01	2.035443e-03	6.499262e-03	-1.709850e-16	0.000000e+00	2.957835e+05	1.703233e+04	8.534705e-03	3.854729e+04	8.638772e+03	8.884180e+03	7.426004e-18	-inf	
2.000000e-01	8.000000e-01	2.035443e-03	6.499262e-03	-1.336957e-16	3.806235e-16	2.957835e+05	1.703233e+04	8.534705e-03	3.854729e+04	8.638772e+03	8.884180e+03	1.752089e-17	-inf	
4.000000e-01	8.000000e-01	2.035443e-03	6.499262e-03	-9.094947e-19	0.000000e+00	2.957835e+05	1.703233e+04	8.534705e-03	3.854729e+04	8.638772e+03	8.884180e+03	3.950002e-20	-inf	
6.000000e-01	8.000000e-01	2.035443e-03	6.499262e-03	0.000000e+00	-4.354206e-16	2.957835e+05	1.703233e+04	8.534705e-03	3.854729e+04	8.638772e+03	8.884180e+03	1.891064e-17	-inf	
8.000000e-01	8.000000e-01	2.035443e-03	6.499262e-03	0.000000e+00	1.296030e-16	2.957835e+05	1.703233e+04	8.534705e-03	3.854729e+04	8.638772e+03	8.884180e+03	5.628753e-18	-inf	
1.000000e+00	8.000000e-01	2.035443e-03	6.499262e-03	-3.765308e-16	-1.159606e-16	2.957835e+05	1.703233e+04	8.534705e-03	3.854729e+04	8.638772e+03	8.884180e+03	1.711095e-17	-inf	
0.000000e+00	1.000000e+00	2.035443e-03	6.499262e-03	1.818989e-18	-2.614797e-16	2.957835e+05	1.703233e+04	8.534705e-03	3.854729e+04	8.638772e+03	8.884180e+03	1.135653e-17	-inf	
2.000000e-01	1.000000e+00	2.035443e-03	6.499262e-03	0.000000e+00	0.000000e+00	2.957835e+05	1.703233e+04	8.534705e-03	3.854729e+04	8.638772e+03	8.884180e+03	0.000000e+00	-inf	
4.000000e-01	1.000000e+00	2.035443e-03	6.499262e-03	0.000000e+00	0.000000e+00	2.957835e+05	1.703233e+04	8.534705e-03	3.854729e+04	8.638772e+03	8.884180e+03	0.000000e+00	-inf	
6.000000e-01	1.000000e+00	2.035443e-03	6.499262e-03	1.384706e-16	-2.582965e-16	2.957835e+05	1.703233e+04	8.534705e-03	3.854729e+04	8.638772e+03	8.884180e+03	1.272833e-17	-inf	
8.000000e-01	1.000000e+00	2.035443e-03	6.499262e-03	0.000000e+00	4.847607e-16	2.957835e+05	1.703233e+04	8.534705e-03	3.854729e+04	8.638772e+03	8.884180e+03	2.105351e-17	-inf	
1.000000e+00	1.000000e+00	2.035443e-03	6.499262e-03	-2.751221e-16	-2.601155e-16	2.957835e+05	1.703233e+04	8.534705e-03	3.854729e+04	8.638772e+03	8.884180e+03	1.644370e-17	-inf	
1	2	8	7
2	3	9	8
3	4	10	9
4	5	11	10
5	6	12	11
7	8	14	13
8	9	15	14
9	10	16	15
10	11	17	16
11	12	18	17
13	14	20	19
14	15	21	20
15	16	22	21
16	17	23	22
17	18	24	23
19	20	26	25
20	21	27	26
21	22	28	27
22	23	29	28
23	24	30	29
25	26	32	31
26	27	33	32
27	28	34	33
28	29	35	34
29	30	36	35
