TITLE = "Visualization of the volumetric solution"
VARIABLES = "x","y","Density[0]","Density[1]","Momentum_x","Momentum_y","Energy","Electronic_Energy","Total_Density","Pressure","Temperature","Tve","Mach","C<sub>p</sub>"
ZONE STRANDID=4490, SOLUTIONTIME=4.489e-05, NODES= 36, ELEMENTS= 25, DATAPACKING=POINT, ZONETYPE=FEQUADRILATERAL
0.000000e+00	0.000000e+00	2.042389e-03	6.492316e-03	0.000000e+00	0.000000e+00	2.957835e+05	1.715534e+04	8.534705e-03	3.860238e+04	8.655118e+03	8.908767e+03	0.000000e+00	-inf	
2.000000e-01	0.000000e+00	2.042389e-03	6.492316e-03	0.000000e+00	9.404175e-16	2.957835e+05	1.715534e+04	8.534705e-03	3.860238e+04	8.655118e+03	8.908767e+03	4.081635e-17	-inf	
4.000000e-01	0.000000e+00	2.042389e-03	6.492316e-03	0.000000e+00	-7.435119e-16	2.957835e+05	1.715534e+04	8.534705e-03	3.860238e+04	8.655118e+03	8.908767e+03	3.227018e-17	-inf	
6.000000e-01	0.000000e+00	2.042389e-03	6.492316e-03	0.000000e+00	-3.506102e-16	2.957835e+05	1.715534e+04	8.534705e-03	3.860238e+04	8.655118e+03	8.908767e+03	1.521731e-17	-inf	
8.000000e-01	0.000000e+00	2.042389e-03	6.492316e-03	1.323315e-16	0.000000e+00	2.957835e+05	1.715534e+04	8.534705e-03	3.860238e+04	8.655118e+03	8.908767e+03	5.743500e-18	-inf	
1.000000e+00	0.000000e+00	2.042389e-03	6.492316e-03	2.132765e-16	2.783054e-16	2.957835e+05	1.715534e+04	8.534705e-03	3.860238e+04	8.655118e+03	8.908767e+03	1.521813e-17	-inf	
0.000000e+00	2.000000e-01	2.042389e-03	6.492316e-03	0.000000e+00	0.000000e+00	2.957835e+05	1.715534e+04	8.534705e-03	3.860238e+04	8.655118e+03	8.908767e+03	0.000000e+00	-inf	
2.000000e-01	2.000000e-01	2.042389e-03	6.492316e-03	-3.747118e-16	-1.818989e-18	2.957835e+05	1.715534e+04	8.534705e-03	3.860238e+04	8.655118e+03	8.908767e+03	1.626357e-17	-inf	
4.000000e-01	2.000000e-01	2.042389e-03	6.492316e-03	-4.692993e-16	1.341505e-16	2.957835e+05	1.715534e+04	8.534705e-03	3.860238e+04	8.655118e+03	8.908767e+03	2.118454e-17	-inf	
6.000000e-01	2.000000e-01	2.042389e-03	6.492316e-03	0.000000e+00	3.128662e-16	2.957835e+05	1.715534e+04	8.534705e-03	3.860238e+04	8.655118e+03	8.908767e+03	1.357913e-17	-inf	
8.000000e-01	2.000000e-01	2.042389e-03	6.492316e-03	1.191438e-16	-2.448814e-16	2.957835e+05	1.715534e+04	8.534705e-03	3.860238e+04	8.655118e+03	8.908767e+03	1.181965e-17	-inf	
1.000000e+00	2.000000e-01	2.042389e-03	6.492316e-03	2.232809e-16	-1.068656e-16	2.957835e+05	1.715534e+04	8.534705e-03	3.860238e+04	8.655118e+03	8.908767e+03	1.074370e-17	-inf	
0.000000e+00	4.000000e-01	2.042389e-03	6.492316e-03	-1.020453e-15	0.000000e+00	2.957835e+05	1.715534e+04	8.534705e-03	3.860238e+04	8.655118e+03	8.908767e+03	4.429008e-17	-inf	
2.000000e-01	4.000000e-01	2.042389e-03	6.492316e-03	3.461827e-16	0.000000e+00	2.957835e+05	1.715534e+04	8.534705e-03	3.860238e+04	8.655118e+03	8.908767e+03	1.502515e-17	-inf	
4.000000e-01	4.000000e-01	2.042389e-03	6.492316e-03	9.561695e-17	0.000000e+00	2.957835e+05	1.715534e+04	8.534705e-03	3.860238e+04	8.655118e+03	8.908767e+03	4.150002e-18	-inf	
6.000000e-01	4.000000e-01	2.042389e-03	6.492316e-03	-2.605702e-16	-9.094947e-19	2.957835e+05	1.715534e+04	8.534705e-03	3.860238e+04	8.655118e+03	8.908767e+03	1.130943e-17	-inf	
8.000000e-01	4.000000e-01	2.042389e-03	6.492316e-03	-1.398348e-16	0.000000e+00	2.957835e+05	1.715534e+04	8.534705e-03	3.860238e+04	8.655118e+03	8.908767e+03	6.069162e-18	-inf	
1.000000e+00	4.000000e-01	2.042389e-03	6.492316e-03	0.000000e+00	0.000000e+00	2.957835e+05	1.715534e+04	8.534705e-03	3.860238e+04	8.655118e+03	8.908767e+03	0.000000e+00	-inf	
0.000000e+00	6.000000e-01	2.042389e-03	6.492316e-03	7.435119e-16	1.323315e-16	2.957835e+05	1.715534e+04	8.534705e-03	3.860238e+04	8.655118e+03	8.908767e+03	3.277731e-17	-inf	
2.000000e-01	6.000000e-01	2.042389e-03	6.492316e-03	-3.091019e-17	1.818989e-18	2.957835e+05	1.715534e+04	8.534705e-03	3.860238e+04	8.655118e+03	8.908767e+03	1.343896e-18	-inf	
4.000000e-01	6.000000e-01	2.042389e-03	6.492316e-03	0.000000e+00	-1.341505e-16	2.957835e+05	1.715534e+04	8.534705e-03	3.860238e+04	8.655118e+03	8.908767e+03	5.822448e-18	-inf	
6.000000e-01	6.000000e-01	2.042389e-03	6.492316e-03	3.091019e-17	-1.393801e-16	2.957835e+05	1.715534e+04	8.534705e-03	3.860238e+04	8.655118e+03	8.908767e+03	6.196400e-18	-inf	
8.000000e-01	6.000000e-01	2.042389e-03	6.492316e-03	1.407443e-16	-9.094947e-19	2.957835e+05	1.715534e+04	8.534705e-03	3.860238e+04	8.655118e+03	8.908767e+03	6.108764e-18	-inf	
1.000000e+00	6.000000e-01	2.042389e-03	6.492316e-03	5.220500e-16	-9.094947e-19	2.957835e+05	1.715534e+04	8.534705e-03	3.860238e+04	8.655118e+03	8.908767e+03	2.265824e-17	-inf	
0.000000e+00	8.000000e-01	2.042389e-03	6.492316e-03	-1.741682e-16	0.000000e+00	2.957835e+05	1.715534e+04	8.534705e-03	3.860238e+04	8.655118e+03	8.908767e+03	7.559314e-18	-inf	
2.000000e-01	8.000000e-01	2.042389e-03	6.492316e-03	-1.393801e-16	3.738023e-16	2.957835e+05	1.715534e+04	8.534705e-03	3.860238e+04	8.655118e+03	8.908767e+03	1.731504e-17	-inf	
4.000000e-01	8.000000e-01	2.042389e-03	6.492316e-03	-9.094947e-19	0.000000e+00	2.957835e+05	1.715534e+04	8.534705e-03	3.860238e+04	8.655118e+03	8.908767e+03	3.947423e-20	-inf	
6.000000e-01	8.000000e-01	2.042389e-03	6.492316e-03	0.000000e+00	-4.215508e-16	2.957835e+05	1.715534e+04	8.534705e-03	3.860238e+04	8.655118e+03	8.908767e+03	1.829630e-17	-inf	
8.000000e-01	8.000000e-01	2.042389e-03	6.492316e-03	0.000000e+00	1.321041e-16	2.957835e+05	1.715534e+04	8.534705e-03	3.860238e+04	8.655118e+03	8.908767e+03	5.733631e-18	-inf	
1.000000e+00	8.000000e-01	2.042389e-03	6.492316e-03	-3.487912e-16	-1.195986e-16	2.957835e+05	1.715534e+04	8.534705e-03	3.860238e+04	8.655118e+03	8.908767e+03	1.600360e-17	-inf	
0.000000e+00	1.000000e+00	2.042389e-03	6.492316e-03	1.818989e-18	-2.664819e-16	2.957835e+05	1.715534e+04	8.534705e-03	3.860238e+04	8.655118e+03	8.908767e+03	1.156622e-17	-inf	
2.000000e-01	1.000000e+00	2.042389e-03	6.492316e-03	0.000000e+00	0.000000e+00	2.957835e+05	1.715534e+04	8.534705e-03	3.860238e+04	8.655118e+03	8.908767e+03	0.000000e+00	-inf	
4.000000e-01	1.000000e+00	2.042389e-03	6.492316e-03	0.000000e+00	0.000000e+00	2.957835e+05	1.715534e+04	8.534705e-03	3.860238e+04	8.655118e+03	8.908767e+03	0.000000e+00	-inf	
6.000000e-01	1.000000e+00	2.042389e-03	6.492316e-03	1.421085e-16	-2.473826e-16	2.957835e+05	1.715534e+04	8.534705e-03	3.860238e+04	8.655118e+03	8.908767e+03	1.238246e-17	-inf	
8.000000e-01	1.000000e+00	2.042389e-03	6.492316e-03	0.000000e+00	5.138645e-16	2.957835e+05	1.715534e+04	8.534705e-03	3.860238e+04	8.655118e+03	8.908767e+03	2.230294e-17	-inf	
1.000000e+00	1.000000e+00	2.042389e-03	6.492316e-03	-2.823981e-16	-2.810339e-16	2.957835e+05	1.715534e+04	8.534705e-03	3.860238e+04	8.655118e+03	8.908767e+03	1.729184e-17	-inf	
1	2	8	7
2	3	9	8
3	4	10	9
4	5	11	10
5	6	12	11
7	8	14	13
8	9	15	14
9	10	16	15
10	11	17	16
11	12	18	17
13	14	20	19
14	15	21	20
15	16	22	21
16	17	23	22
17	18	24	23
19	20	26	25
20	21	27	26
21	22	28	27
22	23	29	28
23	24	30	29
25	26	32	31
26	27	33	32
27	28	34	33
28	29	35	34
29	30	36	35
