TITLE = "Visualization of the volumetric solution"
VARIABLES = "x","y","Density[0]","Density[1]","Momentum_x","Momentum_y","Energy","Electronic_Energy","Total_Density","Pressure","Temperature","Tve","Mach","C<sub>p</sub>"
ZONE STRANDID=5082, SOLUTIONTIME=5.081e-05, NODES= 36, ELEMENTS= 25, DATAPACKING=POINT, ZONETYPE=FEQUADRILATERAL
0.000000e+00	0.000000e+00	2.012039e-03	6.522666e-03	0.000000e+00	0.000000e+00	2.957835e+05	1.662590e+04	8.534705e-03	3.835640e+04	8.582632e+03	8.802817e+03	0.000000e+00	-inf	
2.000000e-01	0.000000e+00	2.012039e-03	6.522666e-03	0.000000e+00	1.042281e-15	2.957835e+05	1.662590e+04	8.534705e-03	3.835640e+04	8.582632e+03	8.802817e+03	4.537023e-17	-inf	
4.000000e-01	0.000000e+00	2.012039e-03	6.522666e-03	0.000000e+00	-7.898961e-16	2.957835e+05	1.662590e+04	8.534705e-03	3.835640e+04	8.582632e+03	8.802817e+03	3.438398e-17	-inf	
6.000000e-01	0.000000e+00	2.012039e-03	6.522666e-03	0.000000e+00	-4.615686e-16	2.957835e+05	1.662590e+04	8.534705e-03	3.835640e+04	8.582632e+03	8.802817e+03	2.009196e-17	-inf	
8.000000e-01	0.000000e+00	2.012039e-03	6.522666e-03	1.277840e-16	0.000000e+00	2.957835e+05	1.662590e+04	8.534705e-03	3.835640e+04	8.582632e+03	8.802817e+03	5.562406e-18	-inf	
1.000000e+00	0.000000e+00	2.012039e-03	6.522666e-03	1.755325e-16	1.773515e-16	2.957835e+05	1.662590e+04	8.534705e-03	3.835640e+04	8.582632e+03	8.802817e+03	1.086198e-17	-inf	
0.000000e+00	2.000000e-01	2.012039e-03	6.522666e-03	0.000000e+00	0.000000e+00	2.957835e+05	1.662590e+04	8.534705e-03	3.835640e+04	8.582632e+03	8.802817e+03	0.000000e+00	-inf	
2.000000e-01	2.000000e-01	2.012039e-03	6.522666e-03	-4.008598e-16	-1.818989e-18	2.957835e+05	1.662590e+04	8.534705e-03	3.835640e+04	8.582632e+03	8.802817e+03	1.744951e-17	-inf	
4.000000e-01	2.000000e-01	2.012039e-03	6.522666e-03	-5.202310e-16	1.296030e-16	2.957835e+05	1.662590e+04	8.534705e-03	3.835640e+04	8.582632e+03	8.802817e+03	2.333768e-17	-inf	
6.000000e-01	2.000000e-01	2.012039e-03	6.522666e-03	0.000000e+00	3.603873e-16	2.957835e+05	1.662590e+04	8.534705e-03	3.835640e+04	8.582632e+03	8.802817e+03	1.568757e-17	-inf	
8.000000e-01	2.000000e-01	2.012039e-03	6.522666e-03	1.157332e-16	-2.680736e-16	2.957835e+05	1.662590e+04	8.534705e-03	3.835640e+04	8.582632e+03	8.802817e+03	1.271021e-17	-inf	
1.000000e+00	2.000000e-01	2.012039e-03	6.522666e-03	1.800800e-16	-8.708412e-17	2.957835e+05	1.662590e+04	8.534705e-03	3.835640e+04	8.582632e+03	8.802817e+03	8.707302e-18	-inf	
0.000000e+00	4.000000e-01	2.012039e-03	6.522666e-03	-1.132321e-15	0.000000e+00	2.957835e+05	1.662590e+04	8.534705e-03	3.835640e+04	8.582632e+03	8.802817e+03	4.928964e-17	-inf	
2.000000e-01	4.000000e-01	2.012039e-03	6.522666e-03	3.733974e-16	0.000000e+00	2.957835e+05	1.662590e+04	8.534705e-03	3.835640e+04	8.582632e+03	8.802817e+03	1.625389e-17	-inf	
4.000000e-01	4.000000e-01	2.012039e-03	6.522666e-03	8.713393e-17	0.000000e+00	2.957835e+05	1.662590e+04	8.534705e-03	3.835640e+04	8.582632e+03	8.802817e+03	3.792918e-18	-inf	
6.000000e-01	4.000000e-01	2.012039e-03	6.522666e-03	-2.989964e-16	-9.094947e-19	2.957835e+05	1.662590e+04	8.534705e-03	3.835640e+04	8.582632e+03	8.802817e+03	1.301530e-17	-inf	
8.000000e-01	4.000000e-01	2.012039e-03	6.522666e-03	-1.348326e-16	0.000000e+00	2.957835e+05	1.662590e+04	8.534705e-03	3.835640e+04	8.582632e+03	8.802817e+03	5.869229e-18	-inf	
1.000000e+00	4.000000e-01	2.012039e-03	6.522666e-03	0.000000e+00	0.000000e+00	2.957835e+05	1.662590e+04	8.534705e-03	3.835640e+04	8.582632e+03	8.802817e+03	0.000000e+00	-inf	
0.000000e+00	6.000000e-01	2.012039e-03	6.522666e-03	7.898961e-16	1.277840e-16	2.957835e+05	1.662590e+04	8.534705e-03	3.835640e+04	8.582632e+03	8.802817e+03	3.483100e-17	-inf	
2.000000e-01	6.000000e-01	2.012039e-03	6.522666e-03	-1.331542e-17	1.818989e-18	2.957835e+05	1.662590e+04	8.534705e-03	3.835640e+04	8.582632e+03	8.802817e+03	5.850003e-19	-inf	
4.000000e-01	6.000000e-01	2.012039e-03	6.522666e-03	0.000000e+00	-1.296030e-16	2.957835e+05	1.662590e+04	8.534705e-03	3.835640e+04	8.582632e+03	8.802817e+03	5.641586e-18	-inf	
6.000000e-01	6.000000e-01	2.012039e-03	6.522666e-03	1.331542e-17	-1.314220e-16	2.957835e+05	1.662590e+04	8.534705e-03	3.835640e+04	8.582632e+03	8.802817e+03	5.750054e-18	-inf	
8.000000e-01	6.000000e-01	2.012039e-03	6.522666e-03	1.357421e-16	-9.094947e-19	2.957835e+05	1.662590e+04	8.534705e-03	3.835640e+04	8.582632e+03	8.802817e+03	5.908951e-18	-inf	
1.000000e+00	6.000000e-01	2.012039e-03	6.522666e-03	5.989023e-16	-9.094947e-19	2.957835e+05	1.662590e+04	8.534705e-03	3.835640e+04	8.582632e+03	8.802817e+03	2.607009e-17	-inf	
0.000000e+00	8.000000e-01	2.012039e-03	6.522666e-03	-1.459739e-16	0.000000e+00	2.957835e+05	1.662590e+04	8.534705e-03	3.835640e+04	8.582632e+03	8.802817e+03	6.354207e-18	-inf	
2.000000e-01	8.000000e-01	2.012039e-03	6.522666e-03	-1.314220e-16	3.999503e-16	2.957835e+05	1.662590e+04	8.534705e-03	3.835640e+04	8.582632e+03	8.802817e+03	1.832556e-17	-inf	
4.000000e-01	8.000000e-01	2.012039e-03	6.522666e-03	-9.094947e-19	0.000000e+00	2.957835e+05	1.662590e+04	8.534705e-03	3.835640e+04	8.582632e+03	8.802817e+03	3.959007e-20	-inf	
6.000000e-01	8.000000e-01	2.012039e-03	6.522666e-03	0.000000e+00	-4.770300e-16	2.957835e+05	1.662590e+04	8.534705e-03	3.835640e+04	8.582632e+03	8.802817e+03	2.076499e-17	-inf	
8.000000e-01	8.000000e-01	2.012039e-03	6.522666e-03	0.000000e+00	1.275566e-16	2.957835e+05	1.662590e+04	8.534705e-03	3.835640e+04	8.582632e+03	8.802817e+03	5.552508e-18	-inf	
1.000000e+00	8.000000e-01	2.012039e-03	6.522666e-03	-4.597496e-16	-1.145963e-16	2.957835e+05	1.662590e+04	8.534705e-03	3.835640e+04	8.582632e+03	8.802817e+03	2.062511e-17	-inf	
0.000000e+00	1.000000e+00	2.012039e-03	6.522666e-03	1.818989e-18	-2.573870e-16	2.957835e+05	1.662590e+04	8.534705e-03	3.835640e+04	8.582632e+03	8.802817e+03	1.120427e-17	-inf	
2.000000e-01	1.000000e+00	2.012039e-03	6.522666e-03	0.000000e+00	0.000000e+00	2.957835e+05	1.662590e+04	8.534705e-03	3.835640e+04	8.582632e+03	8.802817e+03	0.000000e+00	-inf	
4.000000e-01	1.000000e+00	2.012039e-03	6.522666e-03	0.000000e+00	0.000000e+00	2.957835e+05	1.662590e+04	8.534705e-03	3.835640e+04	8.582632e+03	8.802817e+03	0.000000e+00	-inf	
6.000000e-01	1.000000e+00	2.012039e-03	6.522666e-03	1.371063e-16	-2.937668e-16	2.957835e+05	1.662590e+04	8.534705e-03	3.835640e+04	8.582632e+03	8.802817e+03	1.411177e-17	-inf	
8.000000e-01	1.000000e+00	2.012039e-03	6.522666e-03	0.000000e+00	3.669811e-16	2.957835e+05	1.662590e+04	8.534705e-03	3.835640e+04	8.582632e+03	8.802817e+03	1.597460e-17	-inf	
1.000000e+00	1.000000e+00	2.012039e-03	6.522666e-03	-2.723937e-16	-1.896296e-16	2.957835e+05	1.662590e+04	8.534705e-03	3.835640e+04	8.582632e+03	8.802817e+03	1.444753e-17	-inf	
1	2	8	7
2	3	9	8
3	4	10	9
4	5	11	10
5	6	12	11
7	8	14	13
8	9	15	14
9	10	16	15
10	11	17	16
11	12	18	17
13	14	20	19
14	15	21	20
15	16	22	21
16	17	23	22
17	18	24	23
19	20	26	25
20	21	27	26
21	22	28	27
22	23	29	28
23	24	30	29
25	26	32	31
26	27	33	32
27	28	34	33
28	29	35	34
29	30	36	35
