TITLE = "Visualization of the volumetric solution"
VARIABLES = "x","y","Density[0]","Density[1]","Momentum_x","Momentum_y","Energy","Electronic_Energy","Total_Density","Pressure","Temperature","Tve","Mach","C<sub>p</sub>"
ZONE STRANDID=2591, SOLUTIONTIME=2.59e-05, NODES= 36, ELEMENTS= 25, DATAPACKING=POINT, ZONETYPE=FEQUADRILATERAL
0.000000e+00	0.000000e+00	2.186061e-03	6.348644e-03	0.000000e+00	0.000000e+00	2.957835e+05	2.006959e+04	8.534705e-03	3.950675e+04	8.943394e+03	9.483866e+03	0.000000e+00	-inf	
2.000000e-01	0.000000e+00	2.186061e-03	6.348644e-03	0.000000e+00	5.929905e-16	2.957835e+05	2.006959e+04	8.534705e-03	3.950675e+04	8.943394e+03	9.483866e+03	2.547310e-17	-inf	
4.000000e-01	0.000000e+00	2.186061e-03	6.348644e-03	0.000000e+00	-4.670255e-16	2.957835e+05	2.006959e+04	8.534705e-03	3.950675e+04	8.943394e+03	9.483866e+03	2.006202e-17	-inf	
6.000000e-01	0.000000e+00	2.186061e-03	6.348644e-03	0.000000e+00	-1.059561e-16	2.957835e+05	2.006959e+04	8.534705e-03	3.950675e+04	8.943394e+03	9.483866e+03	4.551559e-18	-inf	
8.000000e-01	0.000000e+00	2.186061e-03	6.348644e-03	3.328751e-16	0.000000e+00	2.957835e+05	2.006959e+04	8.534705e-03	3.950675e+04	8.943394e+03	9.483866e+03	1.429932e-17	-inf	
1.000000e+00	0.000000e+00	2.186061e-03	6.348644e-03	6.098162e-16	1.950866e-16	2.957835e+05	2.006959e+04	8.534705e-03	3.950675e+04	8.943394e+03	9.483866e+03	2.750371e-17	-inf	
0.000000e+00	2.000000e-01	2.186061e-03	6.348644e-03	0.000000e+00	0.000000e+00	2.957835e+05	2.006959e+04	8.534705e-03	3.950675e+04	8.943394e+03	9.483866e+03	0.000000e+00	-inf	
2.000000e-01	2.000000e-01	2.186061e-03	6.348644e-03	-2.478373e-16	-1.818989e-18	2.957835e+05	2.006959e+04	8.534705e-03	3.950675e+04	8.943394e+03	9.483866e+03	1.064664e-17	-inf	
4.000000e-01	2.000000e-01	2.186061e-03	6.348644e-03	-2.955858e-16	3.346941e-16	2.957835e+05	2.006959e+04	8.534705e-03	3.950675e+04	8.943394e+03	9.483866e+03	1.918169e-17	-inf	
6.000000e-01	2.000000e-01	2.186061e-03	6.348644e-03	0.000000e+00	3.883542e-16	2.957835e+05	2.006959e+04	8.534705e-03	3.950675e+04	8.943394e+03	9.483866e+03	1.668254e-17	-inf	
8.000000e-01	2.000000e-01	2.186061e-03	6.348644e-03	3.196874e-16	-1.346052e-16	2.957835e+05	2.006959e+04	8.534705e-03	3.950675e+04	8.943394e+03	9.483866e+03	1.490049e-17	-inf	
1.000000e+00	2.000000e-01	2.186061e-03	6.348644e-03	6.161827e-16	-3.039986e-16	2.957835e+05	2.006959e+04	8.534705e-03	3.950675e+04	8.943394e+03	9.483866e+03	2.951544e-17	-inf	
0.000000e+00	4.000000e-01	2.186061e-03	6.348644e-03	-6.780283e-16	0.000000e+00	2.957835e+05	2.006959e+04	8.534705e-03	3.950675e+04	8.943394e+03	9.483866e+03	2.912607e-17	-inf	
2.000000e-01	4.000000e-01	2.186061e-03	6.348644e-03	4.620921e-16	0.000000e+00	2.957835e+05	2.006959e+04	8.534705e-03	3.950675e+04	8.943394e+03	9.483866e+03	1.985010e-17	-inf	
4.000000e-01	4.000000e-01	2.186061e-03	6.348644e-03	2.790563e-16	0.000000e+00	2.957835e+05	2.006959e+04	8.534705e-03	3.950675e+04	8.943394e+03	9.483866e+03	1.198742e-17	-inf	
6.000000e-01	4.000000e-01	2.186061e-03	6.348644e-03	-3.419700e-16	-9.094947e-19	2.957835e+05	2.006959e+04	8.534705e-03	3.950675e+04	8.943394e+03	9.483866e+03	1.469006e-17	-inf	
8.000000e-01	4.000000e-01	2.186061e-03	6.348644e-03	-3.362857e-16	0.000000e+00	2.957835e+05	2.006959e+04	8.534705e-03	3.950675e+04	8.943394e+03	9.483866e+03	1.444583e-17	-inf	
1.000000e+00	4.000000e-01	2.186061e-03	6.348644e-03	0.000000e+00	0.000000e+00	2.957835e+05	2.006959e+04	8.534705e-03	3.950675e+04	8.943394e+03	9.483866e+03	0.000000e+00	-inf	
0.000000e+00	6.000000e-01	2.186061e-03	6.348644e-03	4.670255e-16	3.328751e-16	2.957835e+05	2.006959e+04	8.534705e-03	3.950675e+04	8.943394e+03	9.483866e+03	2.463646e-17	-inf	
2.000000e-01	6.000000e-01	2.186061e-03	6.348644e-03	-2.146291e-17	1.818989e-18	2.957835e+05	2.006959e+04	8.534705e-03	3.950675e+04	8.943394e+03	9.483866e+03	9.252875e-19	-inf	
4.000000e-01	6.000000e-01	2.186061e-03	6.348644e-03	0.000000e+00	-3.346941e-16	2.957835e+05	2.006959e+04	8.534705e-03	3.950675e+04	8.943394e+03	9.483866e+03	1.437746e-17	-inf	
6.000000e-01	6.000000e-01	2.186061e-03	6.348644e-03	2.146291e-17	-3.371952e-16	2.957835e+05	2.006959e+04	8.534705e-03	3.950675e+04	8.943394e+03	9.483866e+03	1.451421e-17	-inf	
8.000000e-01	6.000000e-01	2.186061e-03	6.348644e-03	3.371952e-16	-9.094947e-19	2.957835e+05	2.006959e+04	8.534705e-03	3.950675e+04	8.943394e+03	9.483866e+03	1.448495e-17	-inf	
1.000000e+00	6.000000e-01	2.186061e-03	6.348644e-03	6.848495e-16	-9.094947e-19	2.957835e+05	2.006959e+04	8.534705e-03	3.950675e+04	8.943394e+03	9.483866e+03	2.941911e-17	-inf	
0.000000e+00	8.000000e-01	2.186061e-03	6.348644e-03	-5.788934e-16	0.000000e+00	2.957835e+05	2.006959e+04	8.534705e-03	3.950675e+04	8.943394e+03	9.483866e+03	2.486753e-17	-inf	
2.000000e-01	8.000000e-01	2.186061e-03	6.348644e-03	-3.371952e-16	2.469278e-16	2.957835e+05	2.006959e+04	8.534705e-03	3.950675e+04	8.943394e+03	9.483866e+03	1.795346e-17	-inf	
4.000000e-01	8.000000e-01	2.186061e-03	6.348644e-03	-9.094947e-19	0.000000e+00	2.957835e+05	2.006959e+04	8.534705e-03	3.950675e+04	8.943394e+03	9.483866e+03	3.906917e-20	-inf	
6.000000e-01	8.000000e-01	2.186061e-03	6.348644e-03	0.000000e+00	-2.410161e-16	2.957835e+05	2.006959e+04	8.534705e-03	3.950675e+04	8.943394e+03	9.483866e+03	1.035333e-17	-inf	
8.000000e-01	8.000000e-01	2.186061e-03	6.348644e-03	0.000000e+00	3.331024e-16	2.957835e+05	2.006959e+04	8.534705e-03	3.950675e+04	8.943394e+03	9.483866e+03	1.430909e-17	-inf	
1.000000e+00	8.000000e-01	2.186061e-03	6.348644e-03	-1.041371e-16	-3.199148e-16	2.957835e+05	2.006959e+04	8.534705e-03	3.950675e+04	8.943394e+03	9.483866e+03	1.445234e-17	-inf	
0.000000e+00	1.000000e+00	2.186061e-03	6.348644e-03	1.818989e-18	-6.675691e-16	2.957835e+05	2.006959e+04	8.534705e-03	3.950675e+04	8.943394e+03	9.483866e+03	2.867688e-17	-inf	
2.000000e-01	1.000000e+00	2.186061e-03	6.348644e-03	0.000000e+00	0.000000e+00	2.957835e+05	2.006959e+04	8.534705e-03	3.950675e+04	8.943394e+03	9.483866e+03	0.000000e+00	-inf	
4.000000e-01	1.000000e+00	2.186061e-03	6.348644e-03	0.000000e+00	0.000000e+00	2.957835e+05	2.006959e+04	8.534705e-03	3.950675e+04	8.943394e+03	9.483866e+03	0.000000e+00	-inf	
6.000000e-01	1.000000e+00	2.186061e-03	6.348644e-03	3.385594e-16	-8.731149e-17	2.957835e+05	2.006959e+04	8.534705e-03	3.950675e+04	8.943394e+03	9.483866e+03	1.501934e-17	-inf	
8.000000e-01	1.000000e+00	2.186061e-03	6.348644e-03	0.000000e+00	7.557901e-16	2.957835e+05	2.006959e+04	8.534705e-03	3.950675e+04	8.943394e+03	9.483866e+03	3.246648e-17	-inf	
1.000000e+00	1.000000e+00	2.186061e-03	6.348644e-03	-6.752998e-16	-1.923581e-16	2.957835e+05	2.006959e+04	8.534705e-03	3.950675e+04	8.943394e+03	9.483866e+03	3.016278e-17	-inf	
1	2	8	7
2	3	9	8
3	4	10	9
4	5	11	10
5	6	12	11
7	8	14	13
8	9	15	14
9	10	16	15
10	11	17	16
11	12	18	17
13	14	20	19
14	15	21	20
15	16	22	21
16	17	23	22
17	18	24	23
19	20	26	25
20	21	27	26
21	22	28	27
22	23	29	28
23	24	30	29
25	26	32	31
26	27	33	32
27	28	34	33
28	29	35	34
29	30	36	35
