TITLE = "Visualization of the volumetric solution"
VARIABLES = "x","y","Density[0]","Density[1]","Momentum_x","Momentum_y","Energy","Electronic_Energy","Total_Density","Pressure","Temperature","Tve","Mach","C<sub>p</sub>"
ZONE STRANDID=5987, SOLUTIONTIME=5.986e-05, NODES= 36, ELEMENTS= 25, DATAPACKING=POINT, ZONETYPE=FEQUADRILATERAL
0.000000e+00	0.000000e+00	1.972869e-03	6.561836e-03	0.000000e+00	0.000000e+00	2.957835e+05	1.596951e+04	8.534705e-03	3.802108e+04	8.485526e+03	8.670554e+03	0.000000e+00	-inf	
2.000000e-01	0.000000e+00	1.972869e-03	6.561836e-03	0.000000e+00	1.156423e-15	2.957835e+05	1.596951e+04	8.534705e-03	3.802108e+04	8.485526e+03	8.670554e+03	5.054296e-17	-inf	
4.000000e-01	0.000000e+00	1.972869e-03	6.561836e-03	0.000000e+00	-8.667485e-16	2.957835e+05	1.596951e+04	8.534705e-03	3.802108e+04	8.485526e+03	8.670554e+03	3.788238e-17	-inf	
6.000000e-01	0.000000e+00	1.972869e-03	6.561836e-03	0.000000e+00	-6.189111e-16	2.957835e+05	1.596951e+04	8.534705e-03	3.802108e+04	8.485526e+03	8.670554e+03	2.705032e-17	-inf	
8.000000e-01	0.000000e+00	1.972869e-03	6.561836e-03	1.207354e-16	0.000000e+00	2.957835e+05	1.596951e+04	8.534705e-03	3.802108e+04	8.485526e+03	8.670554e+03	5.276900e-18	-inf	
1.000000e+00	0.000000e+00	1.972869e-03	6.561836e-03	1.759872e-16	8.230927e-17	2.957835e+05	1.596951e+04	8.534705e-03	3.802108e+04	8.485526e+03	8.670554e+03	8.491442e-18	-inf	
0.000000e+00	2.000000e-01	1.972869e-03	6.561836e-03	0.000000e+00	0.000000e+00	2.957835e+05	1.596951e+04	8.534705e-03	3.802108e+04	8.485526e+03	8.670554e+03	0.000000e+00	-inf	
2.000000e-01	2.000000e-01	1.972869e-03	6.561836e-03	-4.624781e-16	-1.818989e-18	2.957835e+05	1.596951e+04	8.534705e-03	3.802108e+04	8.485526e+03	8.670554e+03	2.021337e-17	-inf	
4.000000e-01	2.000000e-01	1.972869e-03	6.561836e-03	-5.773018e-16	1.225544e-16	2.957835e+05	1.596951e+04	8.534705e-03	3.802108e+04	8.485526e+03	8.670554e+03	2.579402e-17	-inf	
6.000000e-01	2.000000e-01	1.972869e-03	6.561836e-03	0.000000e+00	4.333742e-16	2.957835e+05	1.596951e+04	8.534705e-03	3.802108e+04	8.485526e+03	8.670554e+03	1.894119e-17	-inf	
8.000000e-01	2.000000e-01	1.972869e-03	6.561836e-03	1.100489e-16	-3.080913e-16	2.957835e+05	1.596951e+04	8.534705e-03	3.802108e+04	8.485526e+03	8.670554e+03	1.429878e-17	-inf	
1.000000e+00	2.000000e-01	1.972869e-03	6.561836e-03	1.837179e-16	-8.731149e-17	2.957835e+05	1.596951e+04	8.534705e-03	3.802108e+04	8.485526e+03	8.670554e+03	8.890295e-18	-inf	
0.000000e+00	4.000000e-01	1.972869e-03	6.561836e-03	-1.270109e-15	0.000000e+00	2.957835e+05	1.596951e+04	8.534705e-03	3.802108e+04	8.485526e+03	8.670554e+03	5.551180e-17	-inf	
2.000000e-01	4.000000e-01	1.972869e-03	6.561836e-03	4.094999e-16	0.000000e+00	2.957835e+05	1.596951e+04	8.534705e-03	3.802108e+04	8.485526e+03	8.670554e+03	1.789773e-17	-inf	
4.000000e-01	4.000000e-01	1.972869e-03	6.561836e-03	1.066382e-16	0.000000e+00	2.957835e+05	1.596951e+04	8.534705e-03	3.802108e+04	8.485526e+03	8.670554e+03	4.660763e-18	-inf	
6.000000e-01	4.000000e-01	1.972869e-03	6.561836e-03	-3.865352e-16	-9.094947e-19	2.957835e+05	1.596951e+04	8.534705e-03	3.802108e+04	8.485526e+03	8.670554e+03	1.689408e-17	-inf	
8.000000e-01	4.000000e-01	1.972869e-03	6.561836e-03	-1.316494e-16	0.000000e+00	2.957835e+05	1.596951e+04	8.534705e-03	3.802108e+04	8.485526e+03	8.670554e+03	5.753908e-18	-inf	
1.000000e+00	4.000000e-01	1.972869e-03	6.561836e-03	0.000000e+00	0.000000e+00	2.957835e+05	1.596951e+04	8.534705e-03	3.802108e+04	8.485526e+03	8.670554e+03	0.000000e+00	-inf	
0.000000e+00	6.000000e-01	1.972869e-03	6.561836e-03	8.667485e-16	1.207354e-16	2.957835e+05	1.596951e+04	8.534705e-03	3.802108e+04	8.485526e+03	8.670554e+03	3.824814e-17	-inf	
2.000000e-01	6.000000e-01	1.972869e-03	6.561836e-03	1.637081e-17	1.818989e-18	2.957835e+05	1.596951e+04	8.534705e-03	3.802108e+04	8.485526e+03	8.670554e+03	7.199111e-19	-inf	
4.000000e-01	6.000000e-01	1.972869e-03	6.561836e-03	0.000000e+00	-1.225544e-16	2.957835e+05	1.596951e+04	8.534705e-03	3.802108e+04	8.485526e+03	8.670554e+03	5.356401e-18	-inf	
6.000000e-01	6.000000e-01	1.972869e-03	6.561836e-03	-1.637081e-17	-1.257376e-16	2.957835e+05	1.596951e+04	8.534705e-03	3.802108e+04	8.485526e+03	8.670554e+03	5.541912e-18	-inf	
8.000000e-01	6.000000e-01	1.972869e-03	6.561836e-03	1.325589e-16	-9.094947e-19	2.957835e+05	1.596951e+04	8.534705e-03	3.802108e+04	8.485526e+03	8.670554e+03	5.793795e-18	-inf	
1.000000e+00	6.000000e-01	1.972869e-03	6.561836e-03	7.739800e-16	-9.094947e-19	2.957835e+05	1.596951e+04	8.534705e-03	3.802108e+04	8.485526e+03	8.670554e+03	3.382783e-17	-inf	
0.000000e+00	8.000000e-01	1.972869e-03	6.561836e-03	-1.687113e-16	0.000000e+00	2.957835e+05	1.596951e+04	8.534705e-03	3.802108e+04	8.485526e+03	8.670554e+03	7.373747e-18	-inf	
2.000000e-01	8.000000e-01	1.972869e-03	6.561836e-03	-1.257376e-16	4.615686e-16	2.957835e+05	1.596951e+04	8.534705e-03	3.802108e+04	8.485526e+03	8.670554e+03	2.090859e-17	-inf	
4.000000e-01	8.000000e-01	1.972869e-03	6.561836e-03	-9.094947e-19	0.000000e+00	2.957835e+05	1.596951e+04	8.534705e-03	3.802108e+04	8.485526e+03	8.670554e+03	3.975066e-20	-inf	
6.000000e-01	8.000000e-01	1.972869e-03	6.561836e-03	0.000000e+00	-5.557013e-16	2.957835e+05	1.596951e+04	8.534705e-03	3.802108e+04	8.485526e+03	8.670554e+03	2.428765e-17	-inf	
8.000000e-01	8.000000e-01	1.972869e-03	6.561836e-03	0.000000e+00	1.202807e-16	2.957835e+05	1.596951e+04	8.534705e-03	3.802108e+04	8.485526e+03	8.670554e+03	5.257025e-18	-inf	
1.000000e+00	8.000000e-01	1.972869e-03	6.561836e-03	-6.170922e-16	-1.075477e-16	2.957835e+05	1.596951e+04	8.534705e-03	3.802108e+04	8.485526e+03	8.670554e+03	2.737736e-17	-inf	
0.000000e+00	1.000000e+00	1.972869e-03	6.561836e-03	1.818989e-18	-2.432898e-16	2.957835e+05	1.596951e+04	8.534705e-03	3.802108e+04	8.485526e+03	8.670554e+03	1.063360e-17	-inf	
2.000000e-01	1.000000e+00	1.972869e-03	6.561836e-03	0.000000e+00	0.000000e+00	2.957835e+05	1.596951e+04	8.534705e-03	3.802108e+04	8.485526e+03	8.670554e+03	0.000000e+00	-inf	
4.000000e-01	1.000000e+00	1.972869e-03	6.561836e-03	0.000000e+00	0.000000e+00	2.957835e+05	1.596951e+04	8.534705e-03	3.802108e+04	8.485526e+03	8.670554e+03	0.000000e+00	-inf	
6.000000e-01	1.000000e+00	1.972869e-03	6.561836e-03	1.339231e-16	-3.706191e-16	2.957835e+05	1.596951e+04	8.534705e-03	3.802108e+04	8.485526e+03	8.670554e+03	1.722350e-17	-inf	
8.000000e-01	1.000000e+00	1.972869e-03	6.561836e-03	0.000000e+00	2.187335e-16	2.957835e+05	1.596951e+04	8.534705e-03	3.802108e+04	8.485526e+03	8.670554e+03	9.560034e-18	-inf	
1.000000e+00	1.000000e+00	1.972869e-03	6.561836e-03	-2.660272e-16	-1.127773e-16	2.957835e+05	1.596951e+04	8.534705e-03	3.802108e+04	8.485526e+03	8.670554e+03	1.262872e-17	-inf	
1	2	8	7
2	3	9	8
3	4	10	9
4	5	11	10
5	6	12	11
7	8	14	13
8	9	15	14
9	10	16	15
10	11	17	16
11	12	18	17
13	14	20	19
14	15	21	20
15	16	22	21
16	17	23	22
17	18	24	23
19	20	26	25
20	21	27	26
21	22	28	27
22	23	29	28
23	24	30	29
25	26	32	31
26	27	33	32
27	28	34	33
28	29	35	34
29	30	36	35
