TITLE = "Visualization of the volumetric solution"
VARIABLES = "x","y","Density[0]","Density[1]","Momentum_x","Momentum_y","Energy","Electronic_Energy","Total_Density","Pressure","Temperature","Tve","Mach","C<sub>p</sub>"
ZONE STRANDID=1154, SOLUTIONTIME=1.153e-05, NODES= 36, ELEMENTS= 25, DATAPACKING=POINT, ZONETYPE=FEQUADRILATERAL
0.000000e+00	0.000000e+00	2.433889e-03	6.100816e-03	0.000000e+00	0.000000e+00	2.957835e+05	2.700591e+04	8.534705e-03	3.988043e+04	9.180861e+03	1.080546e+04	0.000000e+00	-inf	
2.000000e-01	0.000000e+00	2.433889e-03	6.100816e-03	0.000000e+00	2.673914e-16	2.957835e+05	2.700591e+04	8.534705e-03	3.988043e+04	9.180861e+03	1.080546e+04	1.145765e-17	-inf	
4.000000e-01	0.000000e+00	2.433889e-03	6.100816e-03	0.000000e+00	-1.991793e-16	2.957835e+05	2.700591e+04	8.534705e-03	3.988043e+04	9.180861e+03	1.080546e+04	8.534780e-18	-inf	
6.000000e-01	0.000000e+00	2.433889e-03	6.100816e-03	0.000000e+00	-9.003998e-17	2.957835e+05	2.700591e+04	8.534705e-03	3.988043e+04	9.180861e+03	1.080546e+04	3.858188e-18	-inf	
8.000000e-01	0.000000e+00	2.433889e-03	6.100816e-03	3.976766e-16	0.000000e+00	2.957835e+05	2.700591e+04	8.534705e-03	3.988043e+04	9.180861e+03	1.080546e+04	1.704033e-17	-inf	
1.000000e+00	0.000000e+00	2.433889e-03	6.100816e-03	7.717063e-16	5.593392e-17	2.957835e+05	2.700591e+04	8.534705e-03	3.988043e+04	9.180861e+03	1.080546e+04	3.315415e-17	-inf	
0.000000e+00	2.000000e-01	2.433889e-03	6.100816e-03	0.000000e+00	0.000000e+00	2.957835e+05	2.700591e+04	8.534705e-03	3.988043e+04	9.180861e+03	1.080546e+04	0.000000e+00	-inf	
2.000000e-01	2.000000e-01	2.433889e-03	6.100816e-03	-1.136868e-16	-1.818989e-18	2.957835e+05	2.700591e+04	8.534705e-03	3.988043e+04	9.180861e+03	1.080546e+04	4.872073e-18	-inf	
4.000000e-01	2.000000e-01	2.433889e-03	6.100816e-03	-1.327862e-16	3.994955e-16	2.957835e+05	2.700591e+04	8.534705e-03	3.988043e+04	9.180861e+03	1.080546e+04	1.803912e-17	-inf	
6.000000e-01	2.000000e-01	2.433889e-03	6.100816e-03	0.000000e+00	4.411049e-16	2.957835e+05	2.700591e+04	8.534705e-03	3.988043e+04	9.180861e+03	1.080546e+04	1.890122e-17	-inf	
8.000000e-01	2.000000e-01	2.433889e-03	6.100816e-03	3.908553e-16	-7.230483e-17	2.957835e+05	2.700591e+04	8.534705e-03	3.988043e+04	9.180861e+03	1.080546e+04	1.703221e-17	-inf	
1.000000e+00	2.000000e-01	2.433889e-03	6.100816e-03	7.771632e-16	-3.872174e-16	2.957835e+05	2.700591e+04	8.534705e-03	3.988043e+04	9.180861e+03	1.080546e+04	3.720580e-17	-inf	
0.000000e+00	4.000000e-01	2.433889e-03	6.100816e-03	-3.083187e-16	0.000000e+00	2.957835e+05	2.700591e+04	8.534705e-03	3.988043e+04	9.180861e+03	1.080546e+04	1.321137e-17	-inf	
2.000000e-01	4.000000e-01	2.433889e-03	6.100816e-03	4.813953e-16	0.000000e+00	2.957835e+05	2.700591e+04	8.534705e-03	3.988043e+04	9.180861e+03	1.080546e+04	2.062766e-17	-inf	
4.000000e-01	4.000000e-01	2.433889e-03	6.100816e-03	3.636158e-16	0.000000e+00	2.957835e+05	2.700591e+04	8.534705e-03	3.988043e+04	9.180861e+03	1.080546e+04	1.558084e-17	-inf	
6.000000e-01	4.000000e-01	2.433889e-03	6.100816e-03	-4.242793e-16	-9.094947e-19	2.957835e+05	2.700591e+04	8.534705e-03	3.988043e+04	9.180861e+03	1.080546e+04	1.818029e-17	-inf	
8.000000e-01	4.000000e-01	2.433889e-03	6.100816e-03	-3.979039e-16	0.000000e+00	2.957835e+05	2.700591e+04	8.534705e-03	3.988043e+04	9.180861e+03	1.080546e+04	1.705007e-17	-inf	
1.000000e+00	4.000000e-01	2.433889e-03	6.100816e-03	0.000000e+00	0.000000e+00	2.957835e+05	2.700591e+04	8.534705e-03	3.988043e+04	9.180861e+03	1.080546e+04	0.000000e+00	-inf	
0.000000e+00	6.000000e-01	2.433889e-03	6.100816e-03	1.991793e-16	3.976766e-16	2.957835e+05	2.700591e+04	8.534705e-03	3.988043e+04	9.180861e+03	1.080546e+04	1.905821e-17	-inf	
2.000000e-01	6.000000e-01	2.433889e-03	6.100816e-03	-7.185456e-18	1.818989e-18	2.957835e+05	2.700591e+04	8.534705e-03	3.988043e+04	9.180861e+03	1.080546e+04	3.176072e-19	-inf	
4.000000e-01	6.000000e-01	2.433889e-03	6.100816e-03	0.000000e+00	-3.994955e-16	2.957835e+05	2.700591e+04	8.534705e-03	3.988043e+04	9.180861e+03	1.080546e+04	1.711827e-17	-inf	
6.000000e-01	6.000000e-01	2.433889e-03	6.100816e-03	7.185456e-18	-3.979039e-16	2.957835e+05	2.700591e+04	8.534705e-03	3.988043e+04	9.180861e+03	1.080546e+04	1.705285e-17	-inf	
8.000000e-01	6.000000e-01	2.433889e-03	6.100816e-03	3.988134e-16	-9.094947e-19	2.957835e+05	2.700591e+04	8.534705e-03	3.988043e+04	9.180861e+03	1.080546e+04	1.708909e-17	-inf	
1.000000e+00	6.000000e-01	2.433889e-03	6.100816e-03	8.494681e-16	-9.094947e-19	2.957835e+05	2.700591e+04	8.534705e-03	3.988043e+04	9.180861e+03	1.080546e+04	3.639949e-17	-inf	
0.000000e+00	8.000000e-01	2.433889e-03	6.100816e-03	-7.612471e-16	0.000000e+00	2.957835e+05	2.700591e+04	8.534705e-03	3.988043e+04	9.180861e+03	1.080546e+04	3.261923e-17	-inf	
2.000000e-01	8.000000e-01	2.433889e-03	6.100816e-03	-3.979039e-16	1.127773e-16	2.957835e+05	2.700591e+04	8.534705e-03	3.988043e+04	9.180861e+03	1.080546e+04	1.772168e-17	-inf	
4.000000e-01	8.000000e-01	2.433889e-03	6.100816e-03	-9.094947e-19	0.000000e+00	2.957835e+05	2.700591e+04	8.534705e-03	3.988043e+04	9.180861e+03	1.080546e+04	3.897160e-20	-inf	
6.000000e-01	8.000000e-01	2.433889e-03	6.100816e-03	0.000000e+00	-9.913492e-17	2.957835e+05	2.700591e+04	8.534705e-03	3.988043e+04	9.180861e+03	1.080546e+04	4.247904e-18	-inf	
8.000000e-01	8.000000e-01	2.433889e-03	6.100816e-03	0.000000e+00	3.985861e-16	2.957835e+05	2.700591e+04	8.534705e-03	3.988043e+04	9.180861e+03	1.080546e+04	1.707930e-17	-inf	
1.000000e+00	8.000000e-01	2.433889e-03	6.100816e-03	-8.822099e-17	-3.922196e-16	2.957835e+05	2.700591e+04	8.534705e-03	3.988043e+04	9.180861e+03	1.080546e+04	1.722640e-17	-inf	
0.000000e+00	1.000000e+00	2.433889e-03	6.100816e-03	1.818989e-18	-7.971721e-16	2.957835e+05	2.700591e+04	8.534705e-03	3.988043e+04	9.180861e+03	1.080546e+04	3.415869e-17	-inf	
2.000000e-01	1.000000e+00	2.433889e-03	6.100816e-03	0.000000e+00	0.000000e+00	2.957835e+05	2.700591e+04	8.534705e-03	3.988043e+04	9.180861e+03	1.080546e+04	0.000000e+00	-inf	
4.000000e-01	1.000000e+00	2.433889e-03	6.100816e-03	0.000000e+00	0.000000e+00	2.957835e+05	2.700591e+04	8.534705e-03	3.988043e+04	9.180861e+03	1.080546e+04	0.000000e+00	-inf	
6.000000e-01	1.000000e+00	2.433889e-03	6.100816e-03	4.001777e-16	-8.731149e-17	2.957835e+05	2.700591e+04	8.534705e-03	3.988043e+04	9.180861e+03	1.080546e+04	1.755090e-17	-inf	
8.000000e-01	1.000000e+00	2.433889e-03	6.100816e-03	0.000000e+00	7.880772e-16	2.957835e+05	2.700591e+04	8.534705e-03	3.988043e+04	9.180861e+03	1.080546e+04	3.376889e-17	-inf	
1.000000e+00	1.000000e+00	2.433889e-03	6.100816e-03	-7.985363e-16	-4.865797e-17	2.957835e+05	2.700591e+04	8.534705e-03	3.988043e+04	9.180861e+03	1.080546e+04	3.428053e-17	-inf	
1	2	8	7
2	3	9	8
3	4	10	9
4	5	11	10
5	6	12	11
7	8	14	13
8	9	15	14
9	10	16	15
10	11	17	16
11	12	18	17
13	14	20	19
14	15	21	20
15	16	22	21
16	17	23	22
17	18	24	23
19	20	26	25
20	21	27	26
21	22	28	27
22	23	29	28
23	24	30	29
25	26	32	31
26	27	33	32
27	28	34	33
28	29	35	34
29	30	36	35
