TITLE = "Visualization of the volumetric solution"
VARIABLES = "x","y","Density[0]","Density[1]","Momentum_x","Momentum_y","Energy","Electronic_Energy","Total_Density","Pressure","Temperature","Tve","Mach","C<sub>p</sub>"
ZONE STRANDID=1590, SOLUTIONTIME=1.589e-05, NODES= 36, ELEMENTS= 25, DATAPACKING=POINT, ZONETYPE=FEQUADRILATERAL
0.000000e+00	0.000000e+00	2.329406e-03	6.205299e-03	0.000000e+00	0.000000e+00	2.957835e+05	2.387285e+04	8.534705e-03	3.985177e+04	9.109232e+03	1.021572e+04	0.000000e+00	-inf	
2.000000e-01	0.000000e+00	2.329406e-03	6.205299e-03	0.000000e+00	3.860805e-16	2.957835e+05	2.387285e+04	8.534705e-03	3.985177e+04	9.109232e+03	1.021572e+04	1.653394e-17	-inf	
4.000000e-01	0.000000e+00	2.329406e-03	6.205299e-03	0.000000e+00	-2.792149e-16	2.957835e+05	2.387285e+04	8.534705e-03	3.985177e+04	9.109232e+03	1.021572e+04	1.195741e-17	-inf	
6.000000e-01	0.000000e+00	2.329406e-03	6.205299e-03	0.000000e+00	-9.003998e-17	2.957835e+05	2.387285e+04	8.534705e-03	3.985177e+04	9.109232e+03	1.021572e+04	3.855972e-18	-inf	
8.000000e-01	0.000000e+00	2.329406e-03	6.205299e-03	4.956746e-16	0.000000e+00	2.957835e+05	2.387285e+04	8.534705e-03	3.985177e+04	9.109232e+03	1.021572e+04	2.122732e-17	-inf	
1.000000e+00	0.000000e+00	2.329406e-03	6.205299e-03	9.540599e-16	9.686119e-17	2.957835e+05	2.387285e+04	8.534705e-03	3.985177e+04	9.109232e+03	1.021572e+04	4.106775e-17	-inf	
0.000000e+00	2.000000e-01	2.329406e-03	6.205299e-03	0.000000e+00	0.000000e+00	2.957835e+05	2.387285e+04	8.534705e-03	3.985177e+04	9.109232e+03	1.021572e+04	0.000000e+00	-inf	
2.000000e-01	2.000000e-01	2.329406e-03	6.205299e-03	-1.534772e-16	-1.818989e-18	2.957835e+05	2.387285e+04	8.534705e-03	3.985177e+04	9.109232e+03	1.021572e+04	6.573141e-18	-inf	
4.000000e-01	2.000000e-01	2.329406e-03	6.205299e-03	-1.921308e-16	4.974936e-16	2.957835e+05	2.387285e+04	8.534705e-03	3.985177e+04	9.109232e+03	1.021572e+04	2.283884e-17	-inf	
6.000000e-01	2.000000e-01	2.329406e-03	6.205299e-03	0.000000e+00	5.391030e-16	2.957835e+05	2.387285e+04	8.534705e-03	3.985177e+04	9.109232e+03	1.021572e+04	2.308714e-17	-inf	
8.000000e-01	2.000000e-01	2.329406e-03	6.205299e-03	4.847607e-16	-9.003998e-17	2.957835e+05	2.387285e+04	8.534705e-03	3.985177e+04	9.109232e+03	1.021572e+04	2.111500e-17	-inf	
1.000000e+00	2.000000e-01	2.329406e-03	6.205299e-03	9.636096e-16	-4.804406e-16	2.957835e+05	2.387285e+04	8.534705e-03	3.985177e+04	9.109232e+03	1.021572e+04	4.611146e-17	-inf	
0.000000e+00	4.000000e-01	2.329406e-03	6.205299e-03	-4.265530e-16	0.000000e+00	2.957835e+05	2.387285e+04	8.534705e-03	3.985177e+04	9.109232e+03	1.021572e+04	1.826718e-17	-inf	
2.000000e-01	4.000000e-01	2.329406e-03	6.205299e-03	5.955293e-16	0.000000e+00	2.957835e+05	2.387285e+04	8.534705e-03	3.985177e+04	9.109232e+03	1.021572e+04	2.550361e-17	-inf	
4.000000e-01	4.000000e-01	2.329406e-03	6.205299e-03	4.513744e-16	0.000000e+00	2.957835e+05	2.387285e+04	8.534705e-03	3.985177e+04	9.109232e+03	1.021572e+04	1.933016e-17	-inf	
6.000000e-01	4.000000e-01	2.329406e-03	6.205299e-03	-5.150014e-16	-9.094947e-19	2.957835e+05	2.387285e+04	8.534705e-03	3.985177e+04	9.109232e+03	1.021572e+04	2.205502e-17	-inf	
8.000000e-01	4.000000e-01	2.329406e-03	6.205299e-03	-4.959020e-16	0.000000e+00	2.957835e+05	2.387285e+04	8.534705e-03	3.985177e+04	9.109232e+03	1.021572e+04	2.123706e-17	-inf	
1.000000e+00	4.000000e-01	2.329406e-03	6.205299e-03	0.000000e+00	0.000000e+00	2.957835e+05	2.387285e+04	8.534705e-03	3.985177e+04	9.109232e+03	1.021572e+04	0.000000e+00	-inf	
0.000000e+00	6.000000e-01	2.329406e-03	6.205299e-03	2.792149e-16	4.956746e-16	2.957835e+05	2.387285e+04	8.534705e-03	3.985177e+04	9.109232e+03	1.021572e+04	2.436347e-17	-inf	
2.000000e-01	6.000000e-01	2.329406e-03	6.205299e-03	-1.174811e-17	1.818989e-18	2.957835e+05	2.387285e+04	8.534705e-03	3.985177e+04	9.109232e+03	1.021572e+04	5.091090e-19	-inf	
4.000000e-01	6.000000e-01	2.329406e-03	6.205299e-03	0.000000e+00	-4.974936e-16	2.957835e+05	2.387285e+04	8.534705e-03	3.985177e+04	9.109232e+03	1.021572e+04	2.130522e-17	-inf	
6.000000e-01	6.000000e-01	2.329406e-03	6.205299e-03	1.174811e-17	-4.959020e-16	2.957835e+05	2.387285e+04	8.534705e-03	3.985177e+04	9.109232e+03	1.021572e+04	2.124301e-17	-inf	
8.000000e-01	6.000000e-01	2.329406e-03	6.205299e-03	4.968115e-16	-9.094947e-19	2.957835e+05	2.387285e+04	8.534705e-03	3.985177e+04	9.109232e+03	1.021572e+04	2.127604e-17	-inf	
1.000000e+00	6.000000e-01	2.329406e-03	6.205299e-03	1.030912e-15	-9.094947e-19	2.957835e+05	2.387285e+04	8.534705e-03	3.985177e+04	9.109232e+03	1.021572e+04	4.414894e-17	-inf	
0.000000e+00	8.000000e-01	2.329406e-03	6.205299e-03	-9.426913e-16	0.000000e+00	2.957835e+05	2.387285e+04	8.534705e-03	3.985177e+04	9.109232e+03	1.021572e+04	4.037085e-17	-inf	
2.000000e-01	8.000000e-01	2.329406e-03	6.205299e-03	-4.959020e-16	1.525677e-16	2.957835e+05	2.387285e+04	8.534705e-03	3.985177e+04	9.109232e+03	1.021572e+04	2.221941e-17	-inf	
4.000000e-01	8.000000e-01	2.329406e-03	6.205299e-03	-9.094947e-19	0.000000e+00	2.957835e+05	2.387285e+04	8.534705e-03	3.985177e+04	9.109232e+03	1.021572e+04	3.894921e-20	-inf	
6.000000e-01	8.000000e-01	2.329406e-03	6.205299e-03	0.000000e+00	-1.391527e-16	2.957835e+05	2.387285e+04	8.534705e-03	3.985177e+04	9.109232e+03	1.021572e+04	5.959229e-18	-inf	
8.000000e-01	8.000000e-01	2.329406e-03	6.205299e-03	0.000000e+00	4.961294e-16	2.957835e+05	2.387285e+04	8.534705e-03	3.985177e+04	9.109232e+03	1.021572e+04	2.124679e-17	-inf	
1.000000e+00	8.000000e-01	2.329406e-03	6.205299e-03	-8.822099e-17	-4.861249e-16	2.957835e+05	2.387285e+04	8.534705e-03	3.985177e+04	9.109232e+03	1.021572e+04	2.115839e-17	-inf	
0.000000e+00	1.000000e+00	2.329406e-03	6.205299e-03	1.818989e-18	-9.931682e-16	2.957835e+05	2.387285e+04	8.534705e-03	3.985177e+04	9.109232e+03	1.021572e+04	4.253261e-17	-inf	
2.000000e-01	1.000000e+00	2.329406e-03	6.205299e-03	0.000000e+00	0.000000e+00	2.957835e+05	2.387285e+04	8.534705e-03	3.985177e+04	9.109232e+03	1.021572e+04	0.000000e+00	-inf	
4.000000e-01	1.000000e+00	2.329406e-03	6.205299e-03	0.000000e+00	0.000000e+00	2.957835e+05	2.387285e+04	8.534705e-03	3.985177e+04	9.109232e+03	1.021572e+04	0.000000e+00	-inf	
6.000000e-01	1.000000e+00	2.329406e-03	6.205299e-03	4.981757e-16	-8.731149e-17	2.957835e+05	2.387285e+04	8.534705e-03	3.985177e+04	9.109232e+03	1.021572e+04	2.165961e-17	-inf	
8.000000e-01	1.000000e+00	2.329406e-03	6.205299e-03	0.000000e+00	1.005901e-15	2.957835e+05	2.387285e+04	8.534705e-03	3.985177e+04	9.109232e+03	1.021572e+04	4.307782e-17	-inf	
1.000000e+00	1.000000e+00	2.329406e-03	6.205299e-03	-9.945325e-16	-9.276846e-17	2.957835e+05	2.387285e+04	8.534705e-03	3.985177e+04	9.109232e+03	1.021572e+04	4.277585e-17	-inf	
1	2	8	7
2	3	9	8
3	4	10	9
4	5	11	10
5	6	12	11
7	8	14	13
8	9	15	14
9	10	16	15
10	11	17	16
11	12	18	17
13	14	20	19
14	15	21	20
15	16	22	21
16	17	23	22
17	18	24	23
19	20	26	25
20	21	27	26
21	22	28	27
22	23	29	28
23	24	30	29
25	26	32	31
26	27	33	32
27	28	34	33
28	29	35	34
29	30	36	35
