TITLE = "Visualization of the volumetric solution"
VARIABLES = "x","y","Density[0]","Density[1]","Momentum_x","Momentum_y","Energy","Electronic_Energy","Total_Density","Pressure","Temperature","Tve","Mach","C<sub>p</sub>"
ZONE STRANDID=5534, SOLUTIONTIME=5.533e-05, NODES= 36, ELEMENTS= 25, DATAPACKING=POINT, ZONETYPE=FEQUADRILATERAL
0.000000e+00	0.000000e+00	1.991538e-03	6.543167e-03	0.000000e+00	0.000000e+00	2.957835e+05	1.627915e+04	8.534705e-03	3.818306e+04	8.532228e+03	8.733126e+03	0.000000e+00	-inf	
2.000000e-01	0.000000e+00	1.991538e-03	6.543167e-03	0.000000e+00	1.110038e-15	2.957835e+05	1.627915e+04	8.534705e-03	3.818306e+04	8.532228e+03	8.733126e+03	4.842056e-17	-inf	
4.000000e-01	0.000000e+00	1.991538e-03	6.543167e-03	0.000000e+00	-8.249117e-16	2.957835e+05	1.627915e+04	8.534705e-03	3.818306e+04	8.532228e+03	8.733126e+03	3.598316e-17	-inf	
6.000000e-01	0.000000e+00	1.991538e-03	6.543167e-03	0.000000e+00	-5.466063e-16	2.957835e+05	1.627915e+04	8.534705e-03	3.818306e+04	8.532228e+03	8.733126e+03	2.384331e-17	-inf	
8.000000e-01	0.000000e+00	1.991538e-03	6.543167e-03	8.344614e-17	0.000000e+00	2.957835e+05	1.627915e+04	8.534705e-03	3.818306e+04	8.532228e+03	8.733126e+03	3.639973e-18	-inf	
1.000000e+00	0.000000e+00	1.991538e-03	6.543167e-03	9.322321e-17	1.291482e-16	2.957835e+05	1.627915e+04	8.534705e-03	3.818306e+04	8.532228e+03	8.733126e+03	6.947854e-18	-inf	
0.000000e+00	2.000000e-01	1.991538e-03	6.543167e-03	0.000000e+00	0.000000e+00	2.957835e+05	1.627915e+04	8.534705e-03	3.818306e+04	8.532228e+03	8.733126e+03	0.000000e+00	-inf	
2.000000e-01	2.000000e-01	1.991538e-03	6.543167e-03	-4.249614e-16	-1.818989e-18	2.957835e+05	1.627915e+04	8.534705e-03	3.818306e+04	8.532228e+03	8.733126e+03	1.853725e-17	-inf	
4.000000e-01	2.000000e-01	1.991538e-03	6.543167e-03	-5.541096e-16	8.526513e-17	2.957835e+05	1.627915e+04	8.534705e-03	3.818306e+04	8.532228e+03	8.733126e+03	2.445509e-17	-inf	
6.000000e-01	2.000000e-01	1.991538e-03	6.543167e-03	0.000000e+00	3.565219e-16	2.957835e+05	1.627915e+04	8.534705e-03	3.818306e+04	8.532228e+03	8.733126e+03	1.555171e-17	-inf	
8.000000e-01	2.000000e-01	1.991538e-03	6.543167e-03	7.025847e-17	-2.855813e-16	2.957835e+05	1.627915e+04	8.534705e-03	3.818306e+04	8.532228e+03	8.733126e+03	1.282869e-17	-inf	
1.000000e+00	2.000000e-01	1.991538e-03	6.543167e-03	1.045919e-16	-4.592948e-17	2.957835e+05	1.627915e+04	8.534705e-03	3.818306e+04	8.532228e+03	8.733126e+03	4.982877e-18	-inf	
0.000000e+00	4.000000e-01	1.991538e-03	6.543167e-03	-1.217813e-15	0.000000e+00	2.957835e+05	1.627915e+04	8.534705e-03	3.818306e+04	8.532228e+03	8.733126e+03	5.312178e-17	-inf	
2.000000e-01	4.000000e-01	1.991538e-03	6.543167e-03	3.579909e-16	0.000000e+00	2.957835e+05	1.627915e+04	8.534705e-03	3.818306e+04	8.532228e+03	8.733126e+03	1.561579e-17	-inf	
4.000000e-01	4.000000e-01	1.991538e-03	6.543167e-03	5.785766e-17	0.000000e+00	2.957835e+05	1.627915e+04	8.534705e-03	3.818306e+04	8.532228e+03	8.733126e+03	2.523787e-18	-inf	
6.000000e-01	4.000000e-01	1.991538e-03	6.543167e-03	-3.042260e-16	-9.094947e-19	2.957835e+05	1.627915e+04	8.534705e-03	3.818306e+04	8.532228e+03	8.733126e+03	1.327059e-17	-inf	
8.000000e-01	4.000000e-01	1.991538e-03	6.543167e-03	-9.367795e-17	0.000000e+00	2.957835e+05	1.627915e+04	8.534705e-03	3.818306e+04	8.532228e+03	8.733126e+03	4.086291e-18	-inf	
1.000000e+00	4.000000e-01	1.991538e-03	6.543167e-03	0.000000e+00	0.000000e+00	2.957835e+05	1.627915e+04	8.534705e-03	3.818306e+04	8.532228e+03	8.733126e+03	0.000000e+00	-inf	
0.000000e+00	6.000000e-01	1.991538e-03	6.543167e-03	8.249117e-16	8.344614e-17	2.957835e+05	1.627915e+04	8.534705e-03	3.818306e+04	8.532228e+03	8.733126e+03	3.616680e-17	-inf	
2.000000e-01	6.000000e-01	1.991538e-03	6.543167e-03	2.937981e-18	1.818989e-18	2.957835e+05	1.627915e+04	8.534705e-03	3.818306e+04	8.532228e+03	8.733126e+03	1.507309e-19	-inf	
4.000000e-01	6.000000e-01	1.991538e-03	6.543167e-03	0.000000e+00	-8.526513e-17	2.957835e+05	1.627915e+04	8.534705e-03	3.818306e+04	8.532228e+03	8.733126e+03	3.719318e-18	-inf	
6.000000e-01	6.000000e-01	1.991538e-03	6.543167e-03	-2.937981e-18	-8.503775e-17	2.957835e+05	1.627915e+04	8.534705e-03	3.818306e+04	8.532228e+03	8.733126e+03	3.711613e-18	-inf	
8.000000e-01	6.000000e-01	1.991538e-03	6.543167e-03	9.458745e-17	-9.094947e-19	2.957835e+05	1.627915e+04	8.534705e-03	3.818306e+04	8.532228e+03	8.733126e+03	4.126154e-18	-inf	
1.000000e+00	6.000000e-01	1.991538e-03	6.543167e-03	6.093615e-16	-9.094947e-19	2.957835e+05	1.627915e+04	8.534705e-03	3.818306e+04	8.532228e+03	8.733126e+03	2.658076e-17	-inf	
0.000000e+00	8.000000e-01	1.991538e-03	6.543167e-03	-8.185452e-17	0.000000e+00	2.957835e+05	1.627915e+04	8.534705e-03	3.818306e+04	8.532228e+03	8.733126e+03	3.570545e-18	-inf	
2.000000e-01	8.000000e-01	1.991538e-03	6.543167e-03	-8.503775e-17	4.240519e-16	2.957835e+05	1.627915e+04	8.534705e-03	3.818306e+04	8.532228e+03	8.733126e+03	1.886568e-17	-inf	
4.000000e-01	8.000000e-01	1.991538e-03	6.543167e-03	-9.094947e-19	0.000000e+00	2.957835e+05	1.627915e+04	8.534705e-03	3.818306e+04	8.532228e+03	8.733126e+03	3.967273e-20	-inf	
6.000000e-01	8.000000e-01	1.991538e-03	6.543167e-03	0.000000e+00	-5.195488e-16	2.957835e+05	1.627915e+04	8.534705e-03	3.818306e+04	8.532228e+03	8.733126e+03	2.266304e-17	-inf	
8.000000e-01	8.000000e-01	1.991538e-03	6.543167e-03	0.000000e+00	8.321877e-17	2.957835e+05	1.627915e+04	8.534705e-03	3.818306e+04	8.532228e+03	8.733126e+03	3.630054e-18	-inf	
1.000000e+00	8.000000e-01	1.991538e-03	6.543167e-03	-5.447873e-16	-7.025847e-17	2.957835e+05	1.627915e+04	8.534705e-03	3.818306e+04	8.532228e+03	8.733126e+03	2.396077e-17	-inf	
0.000000e+00	1.000000e+00	1.991538e-03	6.543167e-03	1.818989e-18	-1.687113e-16	2.957835e+05	1.627915e+04	8.534705e-03	3.818306e+04	8.532228e+03	8.733126e+03	7.359718e-18	-inf	
2.000000e-01	1.000000e+00	1.991538e-03	6.543167e-03	0.000000e+00	0.000000e+00	2.957835e+05	1.627915e+04	8.534705e-03	3.818306e+04	8.532228e+03	8.733126e+03	0.000000e+00	-inf	
4.000000e-01	1.000000e+00	1.991538e-03	6.543167e-03	0.000000e+00	0.000000e+00	2.957835e+05	1.627915e+04	8.534705e-03	3.818306e+04	8.532228e+03	8.733126e+03	0.000000e+00	-inf	
6.000000e-01	1.000000e+00	1.991538e-03	6.543167e-03	9.595169e-17	-3.287823e-16	2.957835e+05	1.627915e+04	8.534705e-03	3.818306e+04	8.532228e+03	8.733126e+03	1.493996e-17	-inf	
8.000000e-01	1.000000e+00	1.991538e-03	6.543167e-03	0.000000e+00	2.132765e-16	2.957835e+05	1.627915e+04	8.534705e-03	3.818306e+04	8.532228e+03	8.733126e+03	9.303254e-18	-inf	
1.000000e+00	1.000000e+00	1.991538e-03	6.543167e-03	-1.900844e-16	-1.546141e-16	2.957835e+05	1.627915e+04	8.534705e-03	3.818306e+04	8.532228e+03	8.733126e+03	1.068817e-17	-inf	
1	2	8	7
2	3	9	8
3	4	10	9
4	5	11	10
5	6	12	11
7	8	14	13
8	9	15	14
9	10	16	15
10	11	17	16
11	12	18	17
13	14	20	19
14	15	21	20
15	16	22	21
16	17	23	22
17	18	24	23
19	20	26	25
20	21	27	26
21	22	28	27
22	23	29	28
23	24	30	29
25	26	32	31
26	27	33	32
27	28	34	33
28	29	35	34
29	30	36	35
