TITLE = "Visualization of the volumetric solution"
VARIABLES = "x","y","Density[0]","Density[1]","Momentum_x","Momentum_y","Energy","Electronic_Energy","Total_Density","Pressure","Temperature","Tve","Mach","C<sub>p</sub>"
ZONE STRANDID=8903, SOLUTIONTIME=8.902e-05, NODES= 36, ELEMENTS= 25, DATAPACKING=POINT, ZONETYPE=FEQUADRILATERAL
0.000000e+00	0.000000e+00	1.882368e-03	6.652337e-03	0.000000e+00	0.000000e+00	2.957835e+05	1.453200e+04	8.534705e-03	3.719171e+04	8.250965e+03	8.377363e+03	0.000000e+00	-inf	
2.000000e-01	0.000000e+00	1.882368e-03	6.652337e-03	0.000000e+00	1.419266e-15	2.957835e+05	1.453200e+04	8.534705e-03	3.719171e+04	8.250965e+03	8.377363e+03	6.266933e-17	-inf	
4.000000e-01	0.000000e+00	1.882368e-03	6.652337e-03	0.000000e+00	-1.121407e-15	2.957835e+05	1.453200e+04	8.534705e-03	3.719171e+04	8.250965e+03	8.377363e+03	4.951700e-17	-inf	
6.000000e-01	0.000000e+00	1.882368e-03	6.652337e-03	0.000000e+00	-1.137778e-15	2.957835e+05	1.453200e+04	8.534705e-03	3.719171e+04	8.250965e+03	8.377363e+03	5.023988e-17	-inf	
8.000000e-01	0.000000e+00	1.882368e-03	6.652337e-03	3.494733e-16	0.000000e+00	2.957835e+05	1.453200e+04	8.534705e-03	3.719171e+04	8.250965e+03	8.377363e+03	1.543139e-17	-inf	
1.000000e+00	0.000000e+00	1.882368e-03	6.652337e-03	6.748451e-16	-1.164153e-16	2.957835e+05	1.453200e+04	8.534705e-03	3.719171e+04	8.250965e+03	8.377363e+03	3.023868e-17	-inf	
0.000000e+00	2.000000e-01	1.882368e-03	6.652337e-03	0.000000e+00	0.000000e+00	2.957835e+05	1.453200e+04	8.534705e-03	3.719171e+04	8.250965e+03	8.377363e+03	0.000000e+00	-inf	
2.000000e-01	2.000000e-01	1.882368e-03	6.652337e-03	-7.166818e-16	-1.818989e-18	2.957835e+05	1.453200e+04	8.534705e-03	3.719171e+04	8.250965e+03	8.377363e+03	3.164601e-17	-inf	
4.000000e-01	2.000000e-01	1.882368e-03	6.652337e-03	-7.087237e-16	3.512923e-16	2.957835e+05	1.453200e+04	8.534705e-03	3.719171e+04	8.250965e+03	8.377363e+03	3.492792e-17	-inf	
6.000000e-01	2.000000e-01	1.882368e-03	6.652337e-03	0.000000e+00	9.376890e-16	2.957835e+05	1.453200e+04	8.534705e-03	3.719171e+04	8.250965e+03	8.377363e+03	4.140473e-17	-inf	
8.000000e-01	2.000000e-01	1.882368e-03	6.652337e-03	3.358309e-16	-5.668426e-16	2.957835e+05	1.453200e+04	8.534705e-03	3.719171e+04	8.250965e+03	8.377363e+03	2.909259e-17	-inf	
1.000000e+00	2.000000e-01	1.882368e-03	6.652337e-03	6.666596e-16	-3.317382e-16	2.957835e+05	1.453200e+04	8.534705e-03	3.719171e+04	8.250965e+03	8.377363e+03	3.288033e-17	-inf	
0.000000e+00	4.000000e-01	1.882368e-03	6.652337e-03	-1.257376e-15	0.000000e+00	2.957835e+05	1.453200e+04	8.534705e-03	3.719171e+04	8.250965e+03	8.377363e+03	5.552089e-17	-inf	
2.000000e-01	4.000000e-01	1.882368e-03	6.652337e-03	7.070338e-16	0.000000e+00	2.957835e+05	1.453200e+04	8.534705e-03	3.719171e+04	8.250965e+03	8.377363e+03	3.121989e-17	-inf	
4.000000e-01	4.000000e-01	1.882368e-03	6.652337e-03	2.729775e-16	0.000000e+00	2.957835e+05	1.453200e+04	8.534705e-03	3.719171e+04	8.250965e+03	8.377363e+03	1.205363e-17	-inf	
6.000000e-01	4.000000e-01	1.882368e-03	6.652337e-03	-8.842562e-16	-9.094947e-19	2.957835e+05	1.453200e+04	8.534705e-03	3.719171e+04	8.250965e+03	8.377363e+03	3.904536e-17	-inf	
8.000000e-01	4.000000e-01	1.882368e-03	6.652337e-03	-3.662990e-16	0.000000e+00	2.957835e+05	1.453200e+04	8.534705e-03	3.719171e+04	8.250965e+03	8.377363e+03	1.617435e-17	-inf	
1.000000e+00	4.000000e-01	1.882368e-03	6.652337e-03	0.000000e+00	0.000000e+00	2.957835e+05	1.453200e+04	8.534705e-03	3.719171e+04	8.250965e+03	8.377363e+03	0.000000e+00	-inf	
0.000000e+00	6.000000e-01	1.882368e-03	6.652337e-03	1.121407e-15	3.494733e-16	2.957835e+05	1.453200e+04	8.534705e-03	3.719171e+04	8.250965e+03	8.377363e+03	5.186580e-17	-inf	
2.000000e-01	6.000000e-01	1.882368e-03	6.652337e-03	3.118096e-17	1.818989e-18	2.957835e+05	1.453200e+04	8.534705e-03	3.719171e+04	8.250965e+03	8.377363e+03	1.379172e-18	-inf	
4.000000e-01	6.000000e-01	1.882368e-03	6.652337e-03	0.000000e+00	-3.512923e-16	2.957835e+05	1.453200e+04	8.534705e-03	3.719171e+04	8.250965e+03	8.377363e+03	1.551171e-17	-inf	
6.000000e-01	6.000000e-01	1.882368e-03	6.652337e-03	-3.118096e-17	-3.706191e-16	2.957835e+05	1.453200e+04	8.534705e-03	3.719171e+04	8.250965e+03	8.377363e+03	1.642292e-17	-inf	
8.000000e-01	6.000000e-01	1.882368e-03	6.652337e-03	6.232312e-16	-9.094947e-19	2.957835e+05	1.453200e+04	8.534705e-03	3.719171e+04	8.250965e+03	8.377363e+03	2.751952e-17	-inf	
1.000000e+00	6.000000e-01	1.882368e-03	6.652337e-03	1.257376e-15	-9.094947e-19	2.957835e+05	1.453200e+04	8.534705e-03	3.719171e+04	8.250965e+03	8.377363e+03	5.552091e-17	-inf	
0.000000e+00	8.000000e-01	1.882368e-03	6.652337e-03	-6.248229e-16	0.000000e+00	2.957835e+05	1.453200e+04	8.534705e-03	3.719171e+04	8.250965e+03	8.377363e+03	2.758977e-17	-inf	
2.000000e-01	8.000000e-01	1.882368e-03	6.652337e-03	-3.706191e-16	7.157723e-16	2.957835e+05	1.453200e+04	8.534705e-03	3.719171e+04	8.250965e+03	8.377363e+03	3.559129e-17	-inf	
4.000000e-01	8.000000e-01	1.882368e-03	6.652337e-03	-9.094947e-19	0.000000e+00	2.957835e+05	1.453200e+04	8.534705e-03	3.719171e+04	8.250965e+03	8.377363e+03	4.015978e-20	-inf	
6.000000e-01	8.000000e-01	1.882368e-03	6.652337e-03	0.000000e+00	-6.932623e-16	2.957835e+05	1.453200e+04	8.534705e-03	3.719171e+04	8.250965e+03	8.377363e+03	3.061179e-17	-inf	
8.000000e-01	8.000000e-01	1.882368e-03	6.652337e-03	0.000000e+00	3.460627e-16	2.957835e+05	1.453200e+04	8.534705e-03	3.719171e+04	8.250965e+03	8.377363e+03	1.528079e-17	-inf	
1.000000e+00	8.000000e-01	1.882368e-03	6.652337e-03	-1.135959e-15	-3.428795e-16	2.957835e+05	1.453200e+04	8.534705e-03	3.719171e+04	8.250965e+03	8.377363e+03	5.239473e-17	-inf	
0.000000e+00	1.000000e+00	1.882368e-03	6.652337e-03	1.818989e-18	-7.007657e-16	2.957835e+05	1.453200e+04	8.534705e-03	3.719171e+04	8.250965e+03	8.377363e+03	3.094321e-17	-inf	
2.000000e-01	1.000000e+00	1.882368e-03	6.652337e-03	0.000000e+00	0.000000e+00	2.957835e+05	1.453200e+04	8.534705e-03	3.719171e+04	8.250965e+03	8.377363e+03	0.000000e+00	-inf	
4.000000e-01	1.000000e+00	1.882368e-03	6.652337e-03	0.000000e+00	0.000000e+00	2.957835e+05	1.453200e+04	8.534705e-03	3.719171e+04	8.250965e+03	8.377363e+03	0.000000e+00	-inf	
6.000000e-01	1.000000e+00	1.882368e-03	6.652337e-03	3.685727e-16	-8.690222e-16	2.957835e+05	1.453200e+04	8.534705e-03	3.719171e+04	8.250965e+03	8.377363e+03	4.168128e-17	-inf	
8.000000e-01	1.000000e+00	1.882368e-03	6.652337e-03	0.000000e+00	4.233698e-16	2.957835e+05	1.453200e+04	8.534705e-03	3.719171e+04	8.250965e+03	8.377363e+03	1.869438e-17	-inf	
1.000000e+00	1.000000e+00	1.882368e-03	6.652337e-03	-7.353265e-16	8.594725e-17	2.957835e+05	1.453200e+04	8.534705e-03	3.719171e+04	8.250965e+03	8.377363e+03	3.269022e-17	-inf	
1	2	8	7
2	3	9	8
3	4	10	9
4	5	11	10
5	6	12	11
7	8	14	13
8	9	15	14
9	10	16	15
10	11	17	16
11	12	18	17
13	14	20	19
14	15	21	20
15	16	22	21
16	17	23	22
17	18	24	23
19	20	26	25
20	21	27	26
21	22	28	27
22	23	29	28
23	24	30	29
25	26	32	31
26	27	33	32
27	28	34	33
28	29	35	34
29	30	36	35
