TITLE = "Visualization of the volumetric solution"
VARIABLES = "x","y","Density[0]","Density[1]","Momentum_x","Momentum_y","Energy","Electronic_Energy","Total_Density","Pressure","Temperature","Tve","Mach","C<sub>p</sub>"
ZONE STRANDID=9300, SOLUTIONTIME=9.299e-05, NODES= 36, ELEMENTS= 25, DATAPACKING=POINT, ZONETYPE=FEQUADRILATERAL
0.000000e+00	0.000000e+00	1.872773e-03	6.661932e-03	0.000000e+00	0.000000e+00	2.957835e+05	1.438432e+04	8.534705e-03	3.710035e+04	8.225501e+03	8.347132e+03	0.000000e+00	-inf	
2.000000e-01	0.000000e+00	1.872773e-03	6.661932e-03	0.000000e+00	1.461558e-15	2.957835e+05	1.438432e+04	8.534705e-03	3.710035e+04	8.225501e+03	8.347132e+03	6.461079e-17	-inf	
4.000000e-01	0.000000e+00	1.872773e-03	6.661932e-03	0.000000e+00	-1.151420e-15	2.957835e+05	1.438432e+04	8.534705e-03	3.710035e+04	8.225501e+03	8.347132e+03	5.090060e-17	-inf	
6.000000e-01	0.000000e+00	1.872773e-03	6.661932e-03	0.000000e+00	-1.207354e-15	2.957835e+05	1.438432e+04	8.534705e-03	3.710035e+04	8.225501e+03	8.347132e+03	5.337325e-17	-inf	
8.000000e-01	0.000000e+00	1.872773e-03	6.661932e-03	3.710738e-16	0.000000e+00	2.957835e+05	1.438432e+04	8.534705e-03	3.710035e+04	8.225501e+03	8.347132e+03	1.640398e-17	-inf	
1.000000e+00	0.000000e+00	1.872773e-03	6.661932e-03	7.080416e-16	-1.164153e-16	2.957835e+05	1.438432e+04	8.534705e-03	3.710035e+04	8.225501e+03	8.347132e+03	3.172050e-17	-inf	
0.000000e+00	2.000000e-01	1.872773e-03	6.661932e-03	0.000000e+00	0.000000e+00	2.957835e+05	1.438432e+04	8.534705e-03	3.710035e+04	8.225501e+03	8.347132e+03	0.000000e+00	-inf	
2.000000e-01	2.000000e-01	1.872773e-03	6.661932e-03	-7.510152e-16	-1.818989e-18	2.957835e+05	1.438432e+04	8.534705e-03	3.710035e+04	8.225501e+03	8.347132e+03	3.320007e-17	-inf	
4.000000e-01	2.000000e-01	1.872773e-03	6.661932e-03	-7.298695e-16	3.728928e-16	2.957835e+05	1.438432e+04	8.534705e-03	3.710035e+04	8.225501e+03	8.347132e+03	3.623227e-17	-inf	
6.000000e-01	2.000000e-01	1.872773e-03	6.661932e-03	0.000000e+00	9.961241e-16	2.957835e+05	1.438432e+04	8.534705e-03	3.710035e+04	8.225501e+03	8.347132e+03	4.403545e-17	-inf	
8.000000e-01	2.000000e-01	1.872773e-03	6.661932e-03	3.599325e-16	-6.029950e-16	2.957835e+05	1.438432e+04	8.534705e-03	3.710035e+04	8.225501e+03	8.347132e+03	3.104420e-17	-inf	
1.000000e+00	2.000000e-01	1.872773e-03	6.661932e-03	7.030394e-16	-3.499281e-16	2.957835e+05	1.438432e+04	8.534705e-03	3.710035e+04	8.225501e+03	8.347132e+03	3.471610e-17	-inf	
0.000000e+00	4.000000e-01	1.872773e-03	6.661932e-03	-1.255557e-15	0.000000e+00	2.957835e+05	1.438432e+04	8.534705e-03	3.710035e+04	8.225501e+03	8.347132e+03	5.550416e-17	-inf	
2.000000e-01	4.000000e-01	1.872773e-03	6.661932e-03	7.368020e-16	0.000000e+00	2.957835e+05	1.438432e+04	8.534705e-03	3.710035e+04	8.225501e+03	8.347132e+03	3.257165e-17	-inf	
4.000000e-01	4.000000e-01	1.872773e-03	6.661932e-03	2.879663e-16	0.000000e+00	2.957835e+05	1.438432e+04	8.534705e-03	3.710035e+04	8.225501e+03	8.347132e+03	1.273007e-17	-inf	
6.000000e-01	4.000000e-01	1.872773e-03	6.661932e-03	-9.401901e-16	-9.094947e-19	2.957835e+05	1.438432e+04	8.534705e-03	3.710035e+04	8.225501e+03	8.347132e+03	4.156281e-17	-inf	
8.000000e-01	4.000000e-01	1.872773e-03	6.661932e-03	-3.892637e-16	0.000000e+00	2.957835e+05	1.438432e+04	8.534705e-03	3.710035e+04	8.225501e+03	8.347132e+03	1.720810e-17	-inf	
1.000000e+00	4.000000e-01	1.872773e-03	6.661932e-03	0.000000e+00	0.000000e+00	2.957835e+05	1.438432e+04	8.534705e-03	3.710035e+04	8.225501e+03	8.347132e+03	0.000000e+00	-inf	
0.000000e+00	6.000000e-01	1.872773e-03	6.661932e-03	1.151420e-15	3.710738e-16	2.957835e+05	1.438432e+04	8.534705e-03	3.710035e+04	8.225501e+03	8.347132e+03	5.347861e-17	-inf	
2.000000e-01	6.000000e-01	1.872773e-03	6.661932e-03	3.705708e-17	1.818989e-18	2.957835e+05	1.438432e+04	8.534705e-03	3.710035e+04	8.225501e+03	8.347132e+03	1.640147e-18	-inf	
4.000000e-01	6.000000e-01	1.872773e-03	6.661932e-03	0.000000e+00	-3.728928e-16	2.957835e+05	1.438432e+04	8.534705e-03	3.710035e+04	8.225501e+03	8.347132e+03	1.648439e-17	-inf	
6.000000e-01	6.000000e-01	1.872773e-03	6.661932e-03	-3.705708e-17	-3.942660e-16	2.957835e+05	1.438432e+04	8.534705e-03	3.710035e+04	8.225501e+03	8.347132e+03	1.750605e-17	-inf	
8.000000e-01	6.000000e-01	1.872773e-03	6.661932e-03	7.025847e-16	-9.094947e-19	2.957835e+05	1.438432e+04	8.534705e-03	3.710035e+04	8.225501e+03	8.347132e+03	3.105904e-17	-inf	
1.000000e+00	6.000000e-01	1.872773e-03	6.661932e-03	1.256467e-15	-9.094947e-19	2.957835e+05	1.438432e+04	8.534705e-03	3.710035e+04	8.225501e+03	8.347132e+03	5.554438e-17	-inf	
0.000000e+00	8.000000e-01	1.872773e-03	6.661932e-03	-6.657501e-16	0.000000e+00	2.957835e+05	1.438432e+04	8.534705e-03	3.710035e+04	8.225501e+03	8.347132e+03	2.943068e-17	-inf	
2.000000e-01	8.000000e-01	1.872773e-03	6.661932e-03	-3.942660e-16	7.501058e-16	2.957835e+05	1.438432e+04	8.534705e-03	3.710035e+04	8.225501e+03	8.347132e+03	3.746129e-17	-inf	
4.000000e-01	8.000000e-01	1.872773e-03	6.661932e-03	-9.094947e-19	0.000000e+00	2.957835e+05	1.438432e+04	8.534705e-03	3.710035e+04	8.225501e+03	8.347132e+03	4.020584e-20	-inf	
6.000000e-01	8.000000e-01	1.872773e-03	6.661932e-03	0.000000e+00	-7.087237e-16	2.957835e+05	1.438432e+04	8.534705e-03	3.710035e+04	8.225501e+03	8.347132e+03	3.133040e-17	-inf	
8.000000e-01	8.000000e-01	1.872773e-03	6.661932e-03	0.000000e+00	3.701643e-16	2.957835e+05	1.438432e+04	8.534705e-03	3.710035e+04	8.225501e+03	8.347132e+03	1.636378e-17	-inf	
1.000000e+00	8.000000e-01	1.872773e-03	6.661932e-03	-1.205535e-15	-3.658442e-16	2.957835e+05	1.438432e+04	8.534705e-03	3.710035e+04	8.225501e+03	8.347132e+03	5.569279e-17	-inf	
0.000000e+00	1.000000e+00	1.872773e-03	6.661932e-03	1.818989e-18	-7.439667e-16	2.957835e+05	1.438432e+04	8.534705e-03	3.710035e+04	8.225501e+03	8.347132e+03	3.288848e-17	-inf	
2.000000e-01	1.000000e+00	1.872773e-03	6.661932e-03	0.000000e+00	0.000000e+00	2.957835e+05	1.438432e+04	8.534705e-03	3.710035e+04	8.225501e+03	8.347132e+03	0.000000e+00	-inf	
4.000000e-01	1.000000e+00	1.872773e-03	6.661932e-03	0.000000e+00	0.000000e+00	2.957835e+05	1.438432e+04	8.534705e-03	3.710035e+04	8.225501e+03	8.347132e+03	0.000000e+00	-inf	
6.000000e-01	1.000000e+00	1.872773e-03	6.661932e-03	3.915375e-16	-9.376890e-16	2.957835e+05	1.438432e+04	8.534705e-03	3.710035e+04	8.225501e+03	8.347132e+03	4.492076e-17	-inf	
8.000000e-01	1.000000e+00	1.872773e-03	6.661932e-03	0.000000e+00	4.247340e-16	2.957835e+05	1.438432e+04	8.534705e-03	3.710035e+04	8.225501e+03	8.347132e+03	1.877613e-17	-inf	
1.000000e+00	1.000000e+00	1.872773e-03	6.661932e-03	-7.812559e-16	8.594725e-17	2.957835e+05	1.438432e+04	8.534705e-03	3.710035e+04	8.225501e+03	8.347132e+03	3.474518e-17	-inf	
1	2	8	7
2	3	9	8
3	4	10	9
4	5	11	10
5	6	12	11
7	8	14	13
8	9	15	14
9	10	16	15
10	11	17	16
11	12	18	17
13	14	20	19
14	15	21	20
15	16	22	21
16	17	23	22
17	18	24	23
19	20	26	25
20	21	27	26
21	22	28	27
22	23	29	28
23	24	30	29
25	26	32	31
26	27	33	32
27	28	34	33
28	29	35	34
29	30	36	35
