TITLE = "Visualization of the volumetric solution"
VARIABLES = "x","y","Density[0]","Density[1]","Momentum_x","Momentum_y","Energy","Electronic_Energy","Total_Density","Pressure","Temperature","Tve","Mach","C<sub>p</sub>"
ZONE STRANDID=9288, SOLUTIONTIME=9.287e-05, NODES= 36, ELEMENTS= 25, DATAPACKING=POINT, ZONETYPE=FEQUADRILATERAL
0.000000e+00	0.000000e+00	1.873056e-03	6.661649e-03	0.000000e+00	0.000000e+00	2.957835e+05	1.438867e+04	8.534705e-03	3.710306e+04	8.226253e+03	8.348021e+03	0.000000e+00	-inf	
2.000000e-01	0.000000e+00	1.873056e-03	6.661649e-03	0.000000e+00	1.458830e-15	2.957835e+05	1.438867e+04	8.534705e-03	3.710306e+04	8.226253e+03	8.348021e+03	6.448798e-17	-inf	
4.000000e-01	0.000000e+00	1.873056e-03	6.661649e-03	0.000000e+00	-1.150511e-15	2.957835e+05	1.438867e+04	8.534705e-03	3.710306e+04	8.226253e+03	8.348021e+03	5.085866e-17	-inf	
6.000000e-01	0.000000e+00	1.873056e-03	6.661649e-03	0.000000e+00	-1.206899e-15	2.957835e+05	1.438867e+04	8.534705e-03	3.710306e+04	8.226253e+03	8.348021e+03	5.335134e-17	-inf	
8.000000e-01	0.000000e+00	1.873056e-03	6.661649e-03	3.697096e-16	0.000000e+00	2.957835e+05	1.438867e+04	8.534705e-03	3.710306e+04	8.226253e+03	8.348021e+03	1.634312e-17	-inf	
1.000000e+00	0.000000e+00	1.873056e-03	6.661649e-03	7.080416e-16	-1.164153e-16	2.957835e+05	1.438867e+04	8.534705e-03	3.710306e+04	8.226253e+03	8.348021e+03	3.171943e-17	-inf	
0.000000e+00	2.000000e-01	1.873056e-03	6.661649e-03	0.000000e+00	0.000000e+00	2.957835e+05	1.438867e+04	8.534705e-03	3.710306e+04	8.226253e+03	8.348021e+03	0.000000e+00	-inf	
2.000000e-01	2.000000e-01	1.873056e-03	6.661649e-03	-7.505605e-16	-1.818989e-18	2.957835e+05	1.438867e+04	8.534705e-03	3.710306e+04	8.226253e+03	8.348021e+03	3.317884e-17	-inf	
4.000000e-01	2.000000e-01	1.873056e-03	6.661649e-03	-7.285053e-16	3.715286e-16	2.957835e+05	1.438867e+04	8.534705e-03	3.710306e+04	8.226253e+03	8.348021e+03	3.614991e-17	-inf	
6.000000e-01	2.000000e-01	1.873056e-03	6.661649e-03	0.000000e+00	9.938503e-16	2.957835e+05	1.438867e+04	8.534705e-03	3.710306e+04	8.226253e+03	8.348021e+03	4.393344e-17	-inf	
8.000000e-01	2.000000e-01	1.873056e-03	6.661649e-03	3.578862e-16	-6.011760e-16	2.957835e+05	1.438867e+04	8.534705e-03	3.710306e+04	8.226253e+03	8.348021e+03	3.092776e-17	-inf	
1.000000e+00	2.000000e-01	1.873056e-03	6.661649e-03	7.021299e-16	-3.497007e-16	2.957835e+05	1.438867e+04	8.534705e-03	3.710306e+04	8.226253e+03	8.348021e+03	3.467445e-17	-inf	
0.000000e+00	4.000000e-01	1.873056e-03	6.661649e-03	-1.255557e-15	0.000000e+00	2.957835e+05	1.438867e+04	8.534705e-03	3.710306e+04	8.226253e+03	8.348021e+03	5.550228e-17	-inf	
2.000000e-01	4.000000e-01	1.873056e-03	6.661649e-03	7.350226e-16	0.000000e+00	2.957835e+05	1.438867e+04	8.534705e-03	3.710306e+04	8.226253e+03	8.348021e+03	3.249189e-17	-inf	
4.000000e-01	4.000000e-01	1.873056e-03	6.661649e-03	2.875512e-16	0.000000e+00	2.957835e+05	1.438867e+04	8.534705e-03	3.710306e+04	8.226253e+03	8.348021e+03	1.271128e-17	-inf	
6.000000e-01	4.000000e-01	1.873056e-03	6.661649e-03	-9.385985e-16	-9.094947e-19	2.957835e+05	1.438867e+04	8.534705e-03	3.710306e+04	8.226253e+03	8.348021e+03	4.149104e-17	-inf	
8.000000e-01	4.000000e-01	1.873056e-03	6.661649e-03	-3.876721e-16	0.000000e+00	2.957835e+05	1.438867e+04	8.534705e-03	3.710306e+04	8.226253e+03	8.348021e+03	1.713716e-17	-inf	
1.000000e+00	4.000000e-01	1.873056e-03	6.661649e-03	0.000000e+00	0.000000e+00	2.957835e+05	1.438867e+04	8.534705e-03	3.710306e+04	8.226253e+03	8.348021e+03	0.000000e+00	-inf	
0.000000e+00	6.000000e-01	1.873056e-03	6.661649e-03	1.150511e-15	3.697096e-16	2.957835e+05	1.438867e+04	8.534705e-03	3.710306e+04	8.226253e+03	8.348021e+03	5.342004e-17	-inf	
2.000000e-01	6.000000e-01	1.873056e-03	6.661649e-03	3.759104e-17	1.818989e-18	2.957835e+05	1.438867e+04	8.534705e-03	3.710306e+04	8.226253e+03	8.348021e+03	1.663667e-18	-inf	
4.000000e-01	6.000000e-01	1.873056e-03	6.661649e-03	0.000000e+00	-3.715286e-16	2.957835e+05	1.438867e+04	8.534705e-03	3.710306e+04	8.226253e+03	8.348021e+03	1.642353e-17	-inf	
6.000000e-01	6.000000e-01	1.873056e-03	6.661649e-03	-3.759104e-17	-3.922196e-16	2.957835e+05	1.438867e+04	8.534705e-03	3.710306e+04	8.226253e+03	8.348021e+03	1.741763e-17	-inf	
8.000000e-01	6.000000e-01	1.873056e-03	6.661649e-03	6.996288e-16	-9.094947e-19	2.957835e+05	1.438867e+04	8.534705e-03	3.710306e+04	8.226253e+03	8.348021e+03	3.092732e-17	-inf	
1.000000e+00	6.000000e-01	1.873056e-03	6.661649e-03	1.256012e-15	-9.094947e-19	2.957835e+05	1.438867e+04	8.534705e-03	3.710306e+04	8.226253e+03	8.348021e+03	5.552240e-17	-inf	
0.000000e+00	8.000000e-01	1.873056e-03	6.661649e-03	-6.639311e-16	0.000000e+00	2.957835e+05	1.438867e+04	8.534705e-03	3.710306e+04	8.226253e+03	8.348021e+03	2.934927e-17	-inf	
2.000000e-01	8.000000e-01	1.873056e-03	6.661649e-03	-3.922196e-16	7.496510e-16	2.957835e+05	1.438867e+04	8.534705e-03	3.710306e+04	8.226253e+03	8.348021e+03	3.740021e-17	-inf	
4.000000e-01	8.000000e-01	1.873056e-03	6.661649e-03	-9.094947e-19	0.000000e+00	2.957835e+05	1.438867e+04	8.534705e-03	3.710306e+04	8.226253e+03	8.348021e+03	4.020448e-20	-inf	
6.000000e-01	8.000000e-01	1.873056e-03	6.661649e-03	0.000000e+00	-7.084964e-16	2.957835e+05	1.438867e+04	8.534705e-03	3.710306e+04	8.226253e+03	8.348021e+03	3.131929e-17	-inf	
8.000000e-01	8.000000e-01	1.873056e-03	6.661649e-03	0.000000e+00	3.681180e-16	2.957835e+05	1.438867e+04	8.534705e-03	3.710306e+04	8.226253e+03	8.348021e+03	1.627276e-17	-inf	
1.000000e+00	8.000000e-01	1.873056e-03	6.661649e-03	-1.205080e-15	-3.642526e-16	2.957835e+05	1.438867e+04	8.534705e-03	3.710306e+04	8.226253e+03	8.348021e+03	5.565126e-17	-inf	
0.000000e+00	1.000000e+00	1.873056e-03	6.661649e-03	1.818989e-18	-7.412382e-16	2.957835e+05	1.438867e+04	8.534705e-03	3.710306e+04	8.226253e+03	8.348021e+03	3.276675e-17	-inf	
2.000000e-01	1.000000e+00	1.873056e-03	6.661649e-03	0.000000e+00	0.000000e+00	2.957835e+05	1.438867e+04	8.534705e-03	3.710306e+04	8.226253e+03	8.348021e+03	0.000000e+00	-inf	
4.000000e-01	1.000000e+00	1.873056e-03	6.661649e-03	0.000000e+00	0.000000e+00	2.957835e+05	1.438867e+04	8.534705e-03	3.710306e+04	8.226253e+03	8.348021e+03	0.000000e+00	-inf	
6.000000e-01	1.000000e+00	1.873056e-03	6.661649e-03	3.899459e-16	-9.367795e-16	2.957835e+05	1.438867e+04	8.534705e-03	3.710306e+04	8.226253e+03	8.348021e+03	4.485505e-17	-inf	
8.000000e-01	1.000000e+00	1.873056e-03	6.661649e-03	0.000000e+00	4.242793e-16	2.957835e+05	1.438867e+04	8.534705e-03	3.710306e+04	8.226253e+03	8.348021e+03	1.875539e-17	-inf	
1.000000e+00	1.000000e+00	1.873056e-03	6.661649e-03	-7.780727e-16	8.594725e-17	2.957835e+05	1.438867e+04	8.534705e-03	3.710306e+04	8.226253e+03	8.348021e+03	3.460413e-17	-inf	
1	2	8	7
2	3	9	8
3	4	10	9
4	5	11	10
5	6	12	11
7	8	14	13
8	9	15	14
9	10	16	15
10	11	17	16
11	12	18	17
13	14	20	19
14	15	21	20
15	16	22	21
16	17	23	22
17	18	24	23
19	20	26	25
20	21	27	26
21	22	28	27
22	23	29	28
23	24	30	29
25	26	32	31
26	27	33	32
27	28	34	33
28	29	35	34
29	30	36	35
