TITLE = "Visualization of the volumetric solution"
VARIABLES = "x","y","Density[0]","Density[1]","Momentum_x","Momentum_y","Energy","Electronic_Energy","Total_Density","Pressure","Temperature","Tve","Mach","C<sub>p</sub>"
ZONE STRANDID=6548, SOLUTIONTIME=6.547e-05, NODES= 36, ELEMENTS= 25, DATAPACKING=POINT, ZONETYPE=FEQUADRILATERAL
0.000000e+00	0.000000e+00	1.951917e-03	6.582788e-03	0.000000e+00	0.000000e+00	2.957835e+05	1.562832e+04	8.534705e-03	3.783500e+04	8.432294e+03	8.601590e+03	0.000000e+00	-inf	
2.000000e-01	0.000000e+00	1.951917e-03	6.582788e-03	0.000000e+00	1.206445e-15	2.957835e+05	1.562832e+04	8.534705e-03	3.783500e+04	8.432294e+03	8.601590e+03	5.284910e-17	-inf	
4.000000e-01	0.000000e+00	1.951917e-03	6.582788e-03	0.000000e+00	-9.231371e-16	2.957835e+05	1.562832e+04	8.534705e-03	3.783500e+04	8.432294e+03	8.601590e+03	4.043862e-17	-inf	
6.000000e-01	0.000000e+00	1.951917e-03	6.582788e-03	0.000000e+00	-7.103154e-16	2.957835e+05	1.562832e+04	8.534705e-03	3.783500e+04	8.432294e+03	8.601590e+03	3.111583e-17	-inf	
8.000000e-01	0.000000e+00	1.951917e-03	6.582788e-03	1.580247e-16	0.000000e+00	2.957835e+05	1.562832e+04	8.534705e-03	3.783500e+04	8.432294e+03	8.601590e+03	6.922375e-18	-inf	
1.000000e+00	0.000000e+00	1.951917e-03	6.582788e-03	2.346496e-16	2.455636e-17	2.957835e+05	1.562832e+04	8.534705e-03	3.783500e+04	8.432294e+03	8.601590e+03	1.033511e-17	-inf	
0.000000e+00	2.000000e-01	1.951917e-03	6.582788e-03	0.000000e+00	0.000000e+00	2.957835e+05	1.562832e+04	8.534705e-03	3.783500e+04	8.432294e+03	8.601590e+03	0.000000e+00	-inf	
2.000000e-01	2.000000e-01	1.951917e-03	6.582788e-03	-5.150014e-16	-1.818989e-18	2.957835e+05	1.562832e+04	8.534705e-03	3.783500e+04	8.432294e+03	8.601590e+03	2.256011e-17	-inf	
4.000000e-01	2.000000e-01	1.951917e-03	6.582788e-03	-6.023129e-16	1.598437e-16	2.957835e+05	1.562832e+04	8.534705e-03	3.783500e+04	8.432294e+03	8.601590e+03	2.729801e-17	-inf	
6.000000e-01	2.000000e-01	1.951917e-03	6.582788e-03	0.000000e+00	5.184120e-16	2.957835e+05	1.562832e+04	8.534705e-03	3.783500e+04	8.432294e+03	8.601590e+03	2.270937e-17	-inf	
8.000000e-01	2.000000e-01	1.951917e-03	6.582788e-03	1.457465e-16	-3.612968e-16	2.957835e+05	1.562832e+04	8.534705e-03	3.783500e+04	8.432294e+03	8.601590e+03	1.706608e-17	-inf	
1.000000e+00	2.000000e-01	1.951917e-03	6.582788e-03	2.428351e-16	-1.166427e-16	2.957835e+05	1.562832e+04	8.534705e-03	3.783500e+04	8.432294e+03	8.601590e+03	1.180108e-17	-inf	
0.000000e+00	4.000000e-01	1.951917e-03	6.582788e-03	-1.266926e-15	0.000000e+00	2.957835e+05	1.562832e+04	8.534705e-03	3.783500e+04	8.432294e+03	8.601590e+03	5.549852e-17	-inf	
2.000000e-01	4.000000e-01	1.951917e-03	6.582788e-03	4.484616e-16	0.000000e+00	2.957835e+05	1.562832e+04	8.534705e-03	3.783500e+04	8.432294e+03	8.601590e+03	1.964515e-17	-inf	
4.000000e-01	4.000000e-01	1.951917e-03	6.582788e-03	1.249088e-16	0.000000e+00	2.957835e+05	1.562832e+04	8.534705e-03	3.783500e+04	8.432294e+03	8.601590e+03	5.471712e-18	-inf	
6.000000e-01	4.000000e-01	1.951917e-03	6.582788e-03	-4.654339e-16	-9.094947e-19	2.957835e+05	1.562832e+04	8.534705e-03	3.783500e+04	8.432294e+03	8.601590e+03	2.038867e-17	-inf	
8.000000e-01	4.000000e-01	1.951917e-03	6.582788e-03	-1.637090e-16	0.000000e+00	2.957835e+05	1.562832e+04	8.534705e-03	3.783500e+04	8.432294e+03	8.601590e+03	7.171381e-18	-inf	
1.000000e+00	4.000000e-01	1.951917e-03	6.582788e-03	0.000000e+00	0.000000e+00	2.957835e+05	1.562832e+04	8.534705e-03	3.783500e+04	8.432294e+03	8.601590e+03	0.000000e+00	-inf	
0.000000e+00	6.000000e-01	1.951917e-03	6.582788e-03	9.231371e-16	1.580247e-16	2.957835e+05	1.562832e+04	8.534705e-03	3.783500e+04	8.432294e+03	8.601590e+03	4.102684e-17	-inf	
2.000000e-01	6.000000e-01	1.951917e-03	6.582788e-03	1.039314e-17	1.818989e-18	2.957835e+05	1.562832e+04	8.534705e-03	3.783500e+04	8.432294e+03	8.601590e+03	4.621988e-19	-inf	
4.000000e-01	6.000000e-01	1.951917e-03	6.582788e-03	0.000000e+00	-1.598437e-16	2.957835e+05	1.562832e+04	8.534705e-03	3.783500e+04	8.432294e+03	8.601590e+03	7.002057e-18	-inf	
6.000000e-01	6.000000e-01	1.951917e-03	6.582788e-03	-1.039314e-17	-1.650733e-16	2.957835e+05	1.562832e+04	8.534705e-03	3.783500e+04	8.432294e+03	8.601590e+03	7.245461e-18	-inf	
8.000000e-01	6.000000e-01	1.951917e-03	6.582788e-03	1.646185e-16	-9.094947e-19	2.957835e+05	1.562832e+04	8.534705e-03	3.783500e+04	8.432294e+03	8.601590e+03	7.211332e-18	-inf	
1.000000e+00	6.000000e-01	1.951917e-03	6.582788e-03	9.317773e-16	-9.094947e-19	2.957835e+05	1.562832e+04	8.534705e-03	3.783500e+04	8.432294e+03	8.601590e+03	4.081713e-17	-inf	
0.000000e+00	8.000000e-01	1.951917e-03	6.582788e-03	-2.205525e-16	0.000000e+00	2.957835e+05	1.562832e+04	8.534705e-03	3.783500e+04	8.432294e+03	8.601590e+03	9.661444e-18	-inf	
2.000000e-01	8.000000e-01	1.951917e-03	6.582788e-03	-1.650733e-16	5.140919e-16	2.957835e+05	1.562832e+04	8.534705e-03	3.783500e+04	8.432294e+03	8.601590e+03	2.365260e-17	-inf	
4.000000e-01	8.000000e-01	1.951917e-03	6.582788e-03	-9.094947e-19	0.000000e+00	2.957835e+05	1.562832e+04	8.534705e-03	3.783500e+04	8.432294e+03	8.601590e+03	3.984101e-20	-inf	
6.000000e-01	8.000000e-01	1.951917e-03	6.582788e-03	0.000000e+00	-5.820766e-16	2.957835e+05	1.562832e+04	8.534705e-03	3.783500e+04	8.432294e+03	8.601590e+03	2.549825e-17	-inf	
8.000000e-01	8.000000e-01	1.951917e-03	6.582788e-03	0.000000e+00	1.559783e-16	2.957835e+05	1.562832e+04	8.534705e-03	3.783500e+04	8.432294e+03	8.601590e+03	6.832733e-18	-inf	
1.000000e+00	8.000000e-01	1.951917e-03	6.582788e-03	-7.084964e-16	-1.448370e-16	2.957835e+05	1.562832e+04	8.534705e-03	3.783500e+04	8.432294e+03	8.601590e+03	3.167803e-17	-inf	
0.000000e+00	1.000000e+00	1.951917e-03	6.582788e-03	1.818989e-18	-3.178684e-16	2.957835e+05	1.562832e+04	8.534705e-03	3.783500e+04	8.432294e+03	8.601590e+03	1.392466e-17	-inf	
2.000000e-01	1.000000e+00	1.951917e-03	6.582788e-03	0.000000e+00	0.000000e+00	2.957835e+05	1.562832e+04	8.534705e-03	3.783500e+04	8.432294e+03	8.601590e+03	0.000000e+00	-inf	
4.000000e-01	1.000000e+00	1.951917e-03	6.582788e-03	0.000000e+00	0.000000e+00	2.957835e+05	1.562832e+04	8.534705e-03	3.783500e+04	8.432294e+03	8.601590e+03	0.000000e+00	-inf	
6.000000e-01	1.000000e+00	1.951917e-03	6.582788e-03	1.659828e-16	-4.656613e-16	2.957835e+05	1.562832e+04	8.534705e-03	3.783500e+04	8.432294e+03	8.601590e+03	2.165571e-17	-inf	
8.000000e-01	1.000000e+00	1.951917e-03	6.582788e-03	0.000000e+00	2.205525e-16	2.957835e+05	1.562832e+04	8.534705e-03	3.783500e+04	8.432294e+03	8.601590e+03	9.661444e-18	-inf	
1.000000e+00	1.000000e+00	1.951917e-03	6.582788e-03	-3.301466e-16	-5.638867e-17	2.957835e+05	1.562832e+04	8.534705e-03	3.783500e+04	8.432294e+03	8.601590e+03	1.467172e-17	-inf	
1	2	8	7
2	3	9	8
3	4	10	9
4	5	11	10
5	6	12	11
7	8	14	13
8	9	15	14
9	10	16	15
10	11	17	16
11	12	18	17
13	14	20	19
14	15	21	20
15	16	22	21
16	17	23	22
17	18	24	23
19	20	26	25
20	21	27	26
21	22	28	27
22	23	29	28
23	24	30	29
25	26	32	31
26	27	33	32
27	28	34	33
28	29	35	34
29	30	36	35
