TITLE = "Visualization of the volumetric solution"
VARIABLES = "x","y","Density[0]","Density[1]","Momentum_x","Momentum_y","Energy","Electronic_Energy","Total_Density","Pressure","Temperature","Tve","Mach","C<sub>p</sub>"
ZONE STRANDID=3658, SOLUTIONTIME=3.657e-05, NODES= 36, ELEMENTS= 25, DATAPACKING=POINT, ZONETYPE=FEQUADRILATERAL
0.000000e+00	0.000000e+00	2.094128e-03	6.440577e-03	0.000000e+00	0.000000e+00	2.957835e+05	1.811481e+04	8.534705e-03	3.898491e+04	8.771085e+03	9.099722e+03	0.000000e+00	-inf	
2.000000e-01	0.000000e+00	2.094128e-03	6.440577e-03	0.000000e+00	7.962626e-16	2.957835e+05	1.811481e+04	8.534705e-03	3.898491e+04	8.771085e+03	9.099722e+03	3.440534e-17	-inf	
4.000000e-01	0.000000e+00	2.094128e-03	6.440577e-03	0.000000e+00	-6.584742e-16	2.957835e+05	1.811481e+04	8.534705e-03	3.898491e+04	8.771085e+03	9.099722e+03	2.845170e-17	-inf	
6.000000e-01	0.000000e+00	2.094128e-03	6.440577e-03	0.000000e+00	-2.032721e-16	2.957835e+05	1.811481e+04	8.534705e-03	3.898491e+04	8.771085e+03	9.099722e+03	8.783087e-18	-inf	
8.000000e-01	0.000000e+00	2.094128e-03	6.440577e-03	1.609806e-16	0.000000e+00	2.957835e+05	1.811481e+04	8.534705e-03	3.898491e+04	8.771085e+03	9.099722e+03	6.955733e-18	-inf	
1.000000e+00	0.000000e+00	2.094128e-03	6.440577e-03	2.696652e-16	3.747118e-16	2.957835e+05	1.811481e+04	8.534705e-03	3.898491e+04	8.771085e+03	9.099722e+03	1.994757e-17	-inf	
0.000000e+00	2.000000e-01	2.094128e-03	6.440577e-03	0.000000e+00	0.000000e+00	2.957835e+05	1.811481e+04	8.534705e-03	3.898491e+04	8.771085e+03	9.099722e+03	0.000000e+00	-inf	
2.000000e-01	2.000000e-01	2.094128e-03	6.440577e-03	-3.362857e-16	-1.818989e-18	2.957835e+05	1.811481e+04	8.534705e-03	3.898491e+04	8.771085e+03	9.099722e+03	1.453062e-17	-inf	
4.000000e-01	2.000000e-01	2.094128e-03	6.440577e-03	-3.972218e-16	1.627996e-16	2.957835e+05	1.811481e+04	8.534705e-03	3.898491e+04	8.771085e+03	9.099722e+03	1.854894e-17	-inf	
6.000000e-01	2.000000e-01	2.094128e-03	6.440577e-03	0.000000e+00	2.694378e-16	2.957835e+05	1.811481e+04	8.534705e-03	3.898491e+04	8.771085e+03	9.099722e+03	1.164201e-17	-inf	
8.000000e-01	2.000000e-01	2.094128e-03	6.440577e-03	1.502940e-16	-2.023626e-16	2.957835e+05	1.811481e+04	8.534705e-03	3.898491e+04	8.771085e+03	9.099722e+03	1.089154e-17	-inf	
1.000000e+00	2.000000e-01	2.094128e-03	6.440577e-03	2.805791e-16	-1.355147e-16	2.957835e+05	1.811481e+04	8.534705e-03	3.898491e+04	8.771085e+03	9.099722e+03	1.346338e-17	-inf	
0.000000e+00	4.000000e-01	2.094128e-03	6.440577e-03	-8.744792e-16	0.000000e+00	2.957835e+05	1.811481e+04	8.534705e-03	3.898491e+04	8.771085e+03	9.099722e+03	3.778496e-17	-inf	
2.000000e-01	4.000000e-01	2.094128e-03	6.440577e-03	3.334110e-16	0.000000e+00	2.957835e+05	1.811481e+04	8.534705e-03	3.898491e+04	8.771085e+03	9.099722e+03	1.440620e-17	-inf	
4.000000e-01	4.000000e-01	2.094128e-03	6.440577e-03	1.189976e-16	0.000000e+00	2.957835e+05	1.811481e+04	8.534705e-03	3.898491e+04	8.771085e+03	9.099722e+03	5.141713e-18	-inf	
6.000000e-01	4.000000e-01	2.094128e-03	6.440577e-03	-2.207798e-16	-9.094947e-19	2.957835e+05	1.811481e+04	8.534705e-03	3.898491e+04	8.771085e+03	9.099722e+03	9.539653e-18	-inf	
8.000000e-01	4.000000e-01	2.094128e-03	6.440577e-03	-1.666649e-16	0.000000e+00	2.957835e+05	1.811481e+04	8.534705e-03	3.898491e+04	8.771085e+03	9.099722e+03	7.201345e-18	-inf	
1.000000e+00	4.000000e-01	2.094128e-03	6.440577e-03	0.000000e+00	0.000000e+00	2.957835e+05	1.811481e+04	8.534705e-03	3.898491e+04	8.771085e+03	9.099722e+03	0.000000e+00	-inf	
0.000000e+00	6.000000e-01	2.094128e-03	6.440577e-03	6.584742e-16	1.609806e-16	2.957835e+05	1.811481e+04	8.534705e-03	3.898491e+04	8.771085e+03	9.099722e+03	2.928961e-17	-inf	
2.000000e-01	6.000000e-01	2.094128e-03	6.440577e-03	-3.849111e-17	1.818989e-18	2.957835e+05	1.811481e+04	8.534705e-03	3.898491e+04	8.771085e+03	9.099722e+03	1.665000e-18	-inf	
4.000000e-01	6.000000e-01	2.094128e-03	6.440577e-03	0.000000e+00	-1.627996e-16	2.957835e+05	1.811481e+04	8.534705e-03	3.898491e+04	8.771085e+03	9.099722e+03	7.034329e-18	-inf	
6.000000e-01	6.000000e-01	2.094128e-03	6.440577e-03	3.849111e-17	-1.696208e-16	2.957835e+05	1.811481e+04	8.534705e-03	3.898491e+04	8.771085e+03	9.099722e+03	7.515399e-18	-inf	
8.000000e-01	6.000000e-01	2.094128e-03	6.440577e-03	1.675744e-16	-9.094947e-19	2.957835e+05	1.811481e+04	8.534705e-03	3.898491e+04	8.771085e+03	9.099722e+03	7.240750e-18	-inf	
1.000000e+00	6.000000e-01	2.094128e-03	6.440577e-03	4.424692e-16	-9.094947e-19	2.957835e+05	1.811481e+04	8.534705e-03	3.898491e+04	8.771085e+03	9.099722e+03	1.911848e-17	-inf	
0.000000e+00	8.000000e-01	2.094128e-03	6.440577e-03	-2.351044e-16	0.000000e+00	2.957835e+05	1.811481e+04	8.534705e-03	3.898491e+04	8.771085e+03	9.099722e+03	1.015851e-17	-inf	
2.000000e-01	8.000000e-01	2.094128e-03	6.440577e-03	-1.696208e-16	3.353762e-16	2.957835e+05	1.811481e+04	8.534705e-03	3.898491e+04	8.771085e+03	9.099722e+03	1.623907e-17	-inf	
4.000000e-01	8.000000e-01	2.094128e-03	6.440577e-03	-9.094947e-19	0.000000e+00	2.957835e+05	1.811481e+04	8.534705e-03	3.898491e+04	8.771085e+03	9.099722e+03	3.929793e-20	-inf	
6.000000e-01	8.000000e-01	2.094128e-03	6.440577e-03	0.000000e+00	-3.410605e-16	2.957835e+05	1.811481e+04	8.534705e-03	3.898491e+04	8.771085e+03	9.099722e+03	1.473672e-17	-inf	
8.000000e-01	8.000000e-01	2.094128e-03	6.440577e-03	0.000000e+00	1.607532e-16	2.957835e+05	1.811481e+04	8.534705e-03	3.898491e+04	8.771085e+03	9.099722e+03	6.945909e-18	-inf	
1.000000e+00	8.000000e-01	2.094128e-03	6.440577e-03	-2.014531e-16	-1.507487e-16	2.957835e+05	1.811481e+04	8.534705e-03	3.898491e+04	8.771085e+03	9.099722e+03	1.087178e-17	-inf	
0.000000e+00	1.000000e+00	2.094128e-03	6.440577e-03	1.818989e-18	-3.237801e-16	2.957835e+05	1.811481e+04	8.534705e-03	3.898491e+04	8.771085e+03	9.099722e+03	1.399028e-17	-inf	
2.000000e-01	1.000000e+00	2.094128e-03	6.440577e-03	0.000000e+00	0.000000e+00	2.957835e+05	1.811481e+04	8.534705e-03	3.898491e+04	8.771085e+03	9.099722e+03	0.000000e+00	-inf	
4.000000e-01	1.000000e+00	2.094128e-03	6.440577e-03	0.000000e+00	0.000000e+00	2.957835e+05	1.811481e+04	8.534705e-03	3.898491e+04	8.771085e+03	9.099722e+03	0.000000e+00	-inf	
6.000000e-01	1.000000e+00	2.094128e-03	6.440577e-03	1.689386e-16	-1.759872e-16	2.957835e+05	1.811481e+04	8.534705e-03	3.898491e+04	8.771085e+03	9.099722e+03	1.054073e-17	-inf	
8.000000e-01	1.000000e+00	2.094128e-03	6.440577e-03	0.000000e+00	6.543814e-16	2.957835e+05	1.811481e+04	8.534705e-03	3.898491e+04	8.771085e+03	9.099722e+03	2.827486e-17	-inf	
1.000000e+00	1.000000e+00	2.094128e-03	6.440577e-03	-3.360583e-16	-3.692548e-16	2.957835e+05	1.811481e+04	8.534705e-03	3.898491e+04	8.771085e+03	9.099722e+03	2.157332e-17	-inf	
1	2	8	7
2	3	9	8
3	4	10	9
4	5	11	10
5	6	12	11
7	8	14	13
8	9	15	14
9	10	16	15
10	11	17	16
11	12	18	17
13	14	20	19
14	15	21	20
15	16	22	21
16	17	23	22
17	18	24	23
19	20	26	25
20	21	27	26
21	22	28	27
22	23	29	28
23	24	30	29
25	26	32	31
26	27	33	32
27	28	34	33
28	29	35	34
29	30	36	35
