TITLE = "Visualization of the volumetric solution"
VARIABLES = "x","y","Density[0]","Density[1]","Momentum_x","Momentum_y","Energy","Electronic_Energy","Total_Density","Pressure","Temperature","Tve","Mach","C<sub>p</sub>"
ZONE STRANDID=157, SOLUTIONTIME=1.56e-06, NODES= 36, ELEMENTS= 25, DATAPACKING=POINT, ZONETYPE=FEQUADRILATERAL
0.000000e+00	0.000000e+00	3.304064e-03	5.230641e-03	0.000000e+00	0.000000e+00	2.957835e+05	4.501259e+04	8.534705e-03	4.464365e+04	1.092709e+04	1.393433e+04	0.000000e+00	-inf	
2.000000e-01	0.000000e+00	3.304064e-03	5.230641e-03	0.000000e+00	1.455192e-17	2.957835e+05	4.501259e+04	8.534705e-03	4.464365e+04	1.092709e+04	1.393433e+04	5.940825e-19	-inf	
4.000000e-01	0.000000e+00	3.304064e-03	5.230641e-03	0.000000e+00	-1.546141e-17	2.957835e+05	4.501259e+04	8.534705e-03	4.464365e+04	1.092709e+04	1.393433e+04	6.312126e-19	-inf	
6.000000e-01	0.000000e+00	3.304064e-03	5.230641e-03	0.000000e+00	-1.182343e-17	2.957835e+05	4.501259e+04	8.534705e-03	4.464365e+04	1.092709e+04	1.393433e+04	4.826920e-19	-inf	
8.000000e-01	0.000000e+00	3.304064e-03	5.230641e-03	-1.818989e-18	0.000000e+00	2.957835e+05	4.501259e+04	8.534705e-03	4.464365e+04	1.092709e+04	1.393433e+04	7.426031e-20	-inf	
1.000000e+00	0.000000e+00	3.304064e-03	5.230641e-03	-2.728484e-18	2.000888e-17	2.957835e+05	4.501259e+04	8.534705e-03	4.464365e+04	1.092709e+04	1.393433e+04	8.244232e-19	-inf	
0.000000e+00	2.000000e-01	3.304064e-03	5.230641e-03	0.000000e+00	0.000000e+00	2.957835e+05	4.501259e+04	8.534705e-03	4.464365e+04	1.092709e+04	1.393433e+04	0.000000e+00	-inf	
2.000000e-01	2.000000e-01	3.304064e-03	5.230641e-03	-6.821210e-18	-1.818989e-18	2.957835e+05	4.501259e+04	8.534705e-03	4.464365e+04	1.092709e+04	1.393433e+04	2.882075e-19	-inf	
4.000000e-01	2.000000e-01	3.304064e-03	5.230641e-03	-6.366463e-18	0.000000e+00	2.957835e+05	4.501259e+04	8.534705e-03	4.464365e+04	1.092709e+04	1.393433e+04	2.599111e-19	-inf	
6.000000e-01	2.000000e-01	3.304064e-03	5.230641e-03	0.000000e+00	1.818989e-18	2.957835e+05	4.501259e+04	8.534705e-03	4.464365e+04	1.092709e+04	1.393433e+04	7.426031e-20	-inf	
8.000000e-01	2.000000e-01	3.304064e-03	5.230641e-03	0.000000e+00	-5.456968e-18	2.957835e+05	4.501259e+04	8.534705e-03	4.464365e+04	1.092709e+04	1.393433e+04	2.227809e-19	-inf	
1.000000e+00	2.000000e-01	3.304064e-03	5.230641e-03	1.818989e-18	0.000000e+00	2.957835e+05	4.501259e+04	8.534705e-03	4.464365e+04	1.092709e+04	1.393433e+04	7.426031e-20	-inf	
0.000000e+00	4.000000e-01	3.304064e-03	5.230641e-03	-1.364242e-17	0.000000e+00	2.957835e+05	4.501259e+04	8.534705e-03	4.464365e+04	1.092709e+04	1.393433e+04	5.569523e-19	-inf	
2.000000e-01	4.000000e-01	3.304064e-03	5.230641e-03	6.944363e-18	0.000000e+00	2.957835e+05	4.501259e+04	8.534705e-03	4.464365e+04	1.092709e+04	1.393433e+04	2.835039e-19	-inf	
4.000000e-01	4.000000e-01	3.304064e-03	5.230641e-03	-5.788562e-18	0.000000e+00	2.957835e+05	4.501259e+04	8.534705e-03	4.464365e+04	1.092709e+04	1.393433e+04	2.363183e-19	-inf	
6.000000e-01	4.000000e-01	3.304064e-03	5.230641e-03	-3.183231e-18	-9.094947e-19	2.957835e+05	4.501259e+04	8.534705e-03	4.464365e+04	1.092709e+04	1.393433e+04	1.351558e-19	-inf	
8.000000e-01	4.000000e-01	3.304064e-03	5.230641e-03	2.273737e-18	0.000000e+00	2.957835e+05	4.501259e+04	8.534705e-03	4.464365e+04	1.092709e+04	1.393433e+04	9.282539e-20	-inf	
1.000000e+00	4.000000e-01	3.304064e-03	5.230641e-03	0.000000e+00	0.000000e+00	2.957835e+05	4.501259e+04	8.534705e-03	4.464365e+04	1.092709e+04	1.393433e+04	0.000000e+00	-inf	
0.000000e+00	6.000000e-01	3.304064e-03	5.230641e-03	1.546141e-17	-1.818989e-18	2.957835e+05	4.501259e+04	8.534705e-03	4.464365e+04	1.092709e+04	1.393433e+04	6.355659e-19	-inf	
2.000000e-01	6.000000e-01	3.304064e-03	5.230641e-03	-2.027431e-18	1.818989e-18	2.957835e+05	4.501259e+04	8.534705e-03	4.464365e+04	1.092709e+04	1.393433e+04	1.112001e-19	-inf	
4.000000e-01	6.000000e-01	3.304064e-03	5.230641e-03	0.000000e+00	0.000000e+00	2.957835e+05	4.501259e+04	8.534705e-03	4.464365e+04	1.092709e+04	1.393433e+04	0.000000e+00	-inf	
6.000000e-01	6.000000e-01	3.304064e-03	5.230641e-03	2.027431e-18	2.273737e-18	2.957835e+05	4.501259e+04	8.534705e-03	4.464365e+04	1.092709e+04	1.393433e+04	1.243681e-19	-inf	
8.000000e-01	6.000000e-01	3.304064e-03	5.230641e-03	-1.364242e-18	-9.094947e-19	2.957835e+05	4.501259e+04	8.534705e-03	4.464365e+04	1.092709e+04	1.393433e+04	6.693734e-20	-inf	
1.000000e+00	6.000000e-01	3.304064e-03	5.230641e-03	7.275958e-18	-9.094947e-19	2.957835e+05	4.501259e+04	8.534705e-03	4.464365e+04	1.092709e+04	1.393433e+04	2.993529e-19	-inf	
0.000000e+00	8.000000e-01	3.304064e-03	5.230641e-03	2.728484e-18	0.000000e+00	2.957835e+05	4.501259e+04	8.534705e-03	4.464365e+04	1.092709e+04	1.393433e+04	1.113905e-19	-inf	
2.000000e-01	8.000000e-01	3.304064e-03	5.230641e-03	2.273737e-18	5.911716e-18	2.957835e+05	4.501259e+04	8.534705e-03	4.464365e+04	1.092709e+04	1.393433e+04	2.585816e-19	-inf	
4.000000e-01	8.000000e-01	3.304064e-03	5.230641e-03	-9.094947e-19	0.000000e+00	2.957835e+05	4.501259e+04	8.534705e-03	4.464365e+04	1.092709e+04	1.393433e+04	3.713015e-20	-inf	
6.000000e-01	8.000000e-01	3.304064e-03	5.230641e-03	0.000000e+00	-4.092726e-18	2.957835e+05	4.501259e+04	8.534705e-03	4.464365e+04	1.092709e+04	1.393433e+04	1.670857e-19	-inf	
8.000000e-01	8.000000e-01	3.304064e-03	5.230641e-03	0.000000e+00	0.000000e+00	2.957835e+05	4.501259e+04	8.534705e-03	4.464365e+04	1.092709e+04	1.393433e+04	0.000000e+00	-inf	
1.000000e+00	8.000000e-01	3.304064e-03	5.230641e-03	-1.000444e-17	-9.094947e-19	2.957835e+05	4.501259e+04	8.534705e-03	4.464365e+04	1.092709e+04	1.393433e+04	4.101160e-19	-inf	
0.000000e+00	1.000000e+00	3.304064e-03	5.230641e-03	1.818989e-18	1.818989e-18	2.957835e+05	4.501259e+04	8.534705e-03	4.464365e+04	1.092709e+04	1.393433e+04	1.050199e-19	-inf	
2.000000e-01	1.000000e+00	3.304064e-03	5.230641e-03	0.000000e+00	0.000000e+00	2.957835e+05	4.501259e+04	8.534705e-03	4.464365e+04	1.092709e+04	1.393433e+04	0.000000e+00	-inf	
4.000000e-01	1.000000e+00	3.304064e-03	5.230641e-03	0.000000e+00	0.000000e+00	2.957835e+05	4.501259e+04	8.534705e-03	4.464365e+04	1.092709e+04	1.393433e+04	0.000000e+00	-inf	
6.000000e-01	1.000000e+00	3.304064e-03	5.230641e-03	0.000000e+00	-1.546141e-17	2.957835e+05	4.501259e+04	8.534705e-03	4.464365e+04	1.092709e+04	1.393433e+04	6.312126e-19	-inf	
8.000000e-01	1.000000e+00	3.304064e-03	5.230641e-03	0.000000e+00	1.546141e-17	2.957835e+05	4.501259e+04	8.534705e-03	4.464365e+04	1.092709e+04	1.393433e+04	6.312126e-19	-inf	
1.000000e+00	1.000000e+00	3.304064e-03	5.230641e-03	1.818989e-18	-5.456968e-18	2.957835e+05	4.501259e+04	8.534705e-03	4.464365e+04	1.092709e+04	1.393433e+04	2.348317e-19	-inf	
1	2	8	7
2	3	9	8
3	4	10	9
4	5	11	10
5	6	12	11
7	8	14	13
8	9	15	14
9	10	16	15
10	11	17	16
11	12	18	17
13	14	20	19
14	15	21	20
15	16	22	21
16	17	23	22
17	18	24	23
19	20	26	25
20	21	27	26
21	22	28	27
22	23	29	28
23	24	30	29
25	26	32	31
26	27	33	32
27	28	34	33
28	29	35	34
29	30	36	35
