TITLE = "Visualization of the volumetric solution"
VARIABLES = "x","y","Density[0]","Density[1]","Momentum_x","Momentum_y","Energy","Electronic_Energy","Total_Density","Pressure","Temperature","Tve","Mach","C<sub>p</sub>"
ZONE STRANDID=1862, SOLUTIONTIME=1.861e-05, NODES= 36, ELEMENTS= 25, DATAPACKING=POINT, ZONETYPE=FEQUADRILATERAL
0.000000e+00	0.000000e+00	2.281104e-03	6.253601e-03	0.000000e+00	0.000000e+00	2.957835e+05	2.249901e+04	8.534705e-03	3.979239e+04	9.065950e+03	9.953825e+03	0.000000e+00	-inf	
2.000000e-01	0.000000e+00	2.281104e-03	6.253601e-03	0.000000e+00	4.574758e-16	2.957835e+05	2.249901e+04	8.534705e-03	3.979239e+04	9.065950e+03	9.953825e+03	1.959764e-17	-inf	
4.000000e-01	0.000000e+00	2.281104e-03	6.253601e-03	0.000000e+00	-3.315108e-16	2.957835e+05	2.249901e+04	8.534705e-03	3.979239e+04	9.065950e+03	9.953825e+03	1.420147e-17	-inf	
6.000000e-01	0.000000e+00	2.281104e-03	6.253601e-03	0.000000e+00	-9.003998e-17	2.957835e+05	2.249901e+04	8.534705e-03	3.979239e+04	9.065950e+03	9.953825e+03	3.857189e-18	-inf	
8.000000e-01	0.000000e+00	2.281104e-03	6.253601e-03	4.883987e-16	0.000000e+00	2.957835e+05	2.249901e+04	8.534705e-03	3.979239e+04	9.065950e+03	9.953825e+03	2.092233e-17	-inf	
1.000000e+00	0.000000e+00	2.281104e-03	6.253601e-03	9.263204e-16	1.223270e-16	2.957835e+05	2.249901e+04	8.534705e-03	3.979239e+04	9.065950e+03	9.953825e+03	4.002681e-17	-inf	
0.000000e+00	2.000000e-01	2.281104e-03	6.253601e-03	0.000000e+00	0.000000e+00	2.957835e+05	2.249901e+04	8.534705e-03	3.979239e+04	9.065950e+03	9.953825e+03	0.000000e+00	-inf	
2.000000e-01	2.000000e-01	2.281104e-03	6.253601e-03	-1.796252e-16	-1.818989e-18	2.957835e+05	2.249901e+04	8.534705e-03	3.979239e+04	9.065950e+03	9.953825e+03	7.695292e-18	-inf	
4.000000e-01	2.000000e-01	2.281104e-03	6.253601e-03	-2.278284e-16	4.902176e-16	2.957835e+05	2.249901e+04	8.534705e-03	3.979239e+04	9.065950e+03	9.953825e+03	2.315740e-17	-inf	
6.000000e-01	2.000000e-01	2.281104e-03	6.253601e-03	0.000000e+00	5.320544e-16	2.957835e+05	2.249901e+04	8.534705e-03	3.979239e+04	9.065950e+03	9.953825e+03	2.279248e-17	-inf	
8.000000e-01	2.000000e-01	2.281104e-03	6.253601e-03	4.752110e-16	-1.014087e-16	2.957835e+05	2.249901e+04	8.534705e-03	3.979239e+04	9.065950e+03	9.953825e+03	2.081575e-17	-inf	
1.000000e+00	2.000000e-01	2.281104e-03	6.253601e-03	9.340511e-16	-4.656613e-16	2.957835e+05	2.249901e+04	8.534705e-03	3.979239e+04	9.065950e+03	9.953825e+03	4.471031e-17	-inf	
0.000000e+00	4.000000e-01	2.281104e-03	6.253601e-03	-4.979483e-16	0.000000e+00	2.957835e+05	2.249901e+04	8.534705e-03	3.979239e+04	9.065950e+03	9.953825e+03	2.133142e-17	-inf	
2.000000e-01	4.000000e-01	2.281104e-03	6.253601e-03	5.973124e-16	0.000000e+00	2.957835e+05	2.249901e+04	8.534705e-03	3.979239e+04	9.065950e+03	9.953825e+03	2.558804e-17	-inf	
4.000000e-01	4.000000e-01	2.281104e-03	6.253601e-03	4.358771e-16	0.000000e+00	2.957835e+05	2.249901e+04	8.534705e-03	3.979239e+04	9.065950e+03	9.953825e+03	1.867238e-17	-inf	
6.000000e-01	4.000000e-01	2.281104e-03	6.253601e-03	-4.997673e-16	-9.094947e-19	2.957835e+05	2.249901e+04	8.534705e-03	3.979239e+04	9.065950e+03	9.953825e+03	2.140938e-17	-inf	
8.000000e-01	4.000000e-01	2.281104e-03	6.253601e-03	-4.888534e-16	0.000000e+00	2.957835e+05	2.249901e+04	8.534705e-03	3.979239e+04	9.065950e+03	9.953825e+03	2.094181e-17	-inf	
1.000000e+00	4.000000e-01	2.281104e-03	6.253601e-03	0.000000e+00	0.000000e+00	2.957835e+05	2.249901e+04	8.534705e-03	3.979239e+04	9.065950e+03	9.953825e+03	0.000000e+00	-inf	
0.000000e+00	6.000000e-01	2.281104e-03	6.253601e-03	3.315108e-16	4.883987e-16	2.957835e+05	2.249901e+04	8.534705e-03	3.979239e+04	9.065950e+03	9.953825e+03	2.528686e-17	-inf	
2.000000e-01	6.000000e-01	2.281104e-03	6.253601e-03	-1.454837e-17	1.818989e-18	2.957835e+05	2.249901e+04	8.534705e-03	3.979239e+04	9.065950e+03	9.953825e+03	6.280847e-19	-inf	
4.000000e-01	6.000000e-01	2.281104e-03	6.253601e-03	0.000000e+00	-4.902176e-16	2.957835e+05	2.249901e+04	8.534705e-03	3.979239e+04	9.065950e+03	9.953825e+03	2.100025e-17	-inf	
6.000000e-01	6.000000e-01	2.281104e-03	6.253601e-03	1.454837e-17	-4.888534e-16	2.957835e+05	2.249901e+04	8.534705e-03	3.979239e+04	9.065950e+03	9.953825e+03	2.095108e-17	-inf	
8.000000e-01	6.000000e-01	2.281104e-03	6.253601e-03	4.897629e-16	-9.094947e-19	2.957835e+05	2.249901e+04	8.534705e-03	3.979239e+04	9.065950e+03	9.953825e+03	2.098081e-17	-inf	
1.000000e+00	6.000000e-01	2.281104e-03	6.253601e-03	1.000444e-15	-9.094947e-19	2.957835e+05	2.249901e+04	8.534705e-03	3.979239e+04	9.065950e+03	9.953825e+03	4.285767e-17	-inf	
0.000000e+00	8.000000e-01	2.281104e-03	6.253601e-03	-9.122232e-16	0.000000e+00	2.957835e+05	2.249901e+04	8.534705e-03	3.979239e+04	9.065950e+03	9.953825e+03	3.907839e-17	-inf	
2.000000e-01	8.000000e-01	2.281104e-03	6.253601e-03	-4.888534e-16	1.787157e-16	2.957835e+05	2.249901e+04	8.534705e-03	3.979239e+04	9.065950e+03	9.953825e+03	2.229737e-17	-inf	
4.000000e-01	8.000000e-01	2.281104e-03	6.253601e-03	-9.094947e-19	0.000000e+00	2.957835e+05	2.249901e+04	8.534705e-03	3.979239e+04	9.065950e+03	9.953825e+03	3.896150e-20	-inf	
6.000000e-01	8.000000e-01	2.281104e-03	6.253601e-03	0.000000e+00	-1.653007e-16	2.957835e+05	2.249901e+04	8.534705e-03	3.979239e+04	9.065950e+03	9.953825e+03	7.081253e-18	-inf	
8.000000e-01	8.000000e-01	2.281104e-03	6.253601e-03	0.000000e+00	4.861249e-16	2.957835e+05	2.249901e+04	8.534705e-03	3.979239e+04	9.065950e+03	9.953825e+03	2.082492e-17	-inf	
1.000000e+00	8.000000e-01	2.281104e-03	6.253601e-03	-8.822099e-17	-4.765752e-16	2.957835e+05	2.249901e+04	8.534705e-03	3.979239e+04	9.065950e+03	9.953825e+03	2.076268e-17	-inf	
0.000000e+00	1.000000e+00	2.281104e-03	6.253601e-03	1.818989e-18	-9.786163e-16	2.957835e+05	2.249901e+04	8.534705e-03	3.979239e+04	9.065950e+03	9.953825e+03	4.192265e-17	-inf	
2.000000e-01	1.000000e+00	2.281104e-03	6.253601e-03	0.000000e+00	0.000000e+00	2.957835e+05	2.249901e+04	8.534705e-03	3.979239e+04	9.065950e+03	9.953825e+03	0.000000e+00	-inf	
4.000000e-01	1.000000e+00	2.281104e-03	6.253601e-03	0.000000e+00	0.000000e+00	2.957835e+05	2.249901e+04	8.534705e-03	3.979239e+04	9.065950e+03	9.953825e+03	0.000000e+00	-inf	
6.000000e-01	1.000000e+00	2.281104e-03	6.253601e-03	4.911271e-16	-8.731149e-17	2.957835e+05	2.249901e+04	8.534705e-03	3.979239e+04	9.065950e+03	9.953825e+03	2.136910e-17	-inf	
8.000000e-01	1.000000e+00	2.281104e-03	6.253601e-03	0.000000e+00	1.004082e-15	2.957835e+05	2.249901e+04	8.534705e-03	3.979239e+04	9.065950e+03	9.953825e+03	4.301350e-17	-inf	
1.000000e+00	1.000000e+00	2.281104e-03	6.253601e-03	-9.804353e-16	-1.223270e-16	2.957835e+05	2.249901e+04	8.534705e-03	3.979239e+04	9.065950e+03	9.953825e+03	4.232615e-17	-inf	
1	2	8	7
2	3	9	8
3	4	10	9
4	5	11	10
5	6	12	11
7	8	14	13
8	9	15	14
9	10	16	15
10	11	17	16
11	12	18	17
13	14	20	19
14	15	21	20
15	16	22	21
16	17	23	22
17	18	24	23
19	20	26	25
20	21	27	26
21	22	28	27
22	23	29	28
23	24	30	29
25	26	32	31
26	27	33	32
27	28	34	33
28	29	35	34
29	30	36	35
