TITLE = "Visualization of the volumetric solution"
VARIABLES = "x","y","Density[0]","Density[1]","Momentum_x","Momentum_y","Energy","Electronic_Energy","Total_Density","Pressure","Temperature","Tve","Mach","C<sub>p</sub>"
ZONE STRANDID=8637, SOLUTIONTIME=8.636e-05, NODES= 36, ELEMENTS= 25, DATAPACKING=POINT, ZONETYPE=FEQUADRILATERAL
0.000000e+00	0.000000e+00	1.889079e-03	6.645626e-03	0.000000e+00	0.000000e+00	2.957835e+05	1.463566e+04	8.534705e-03	3.725532e+04	8.268730e+03	8.398645e+03	0.000000e+00	-inf	
2.000000e-01	0.000000e+00	1.889079e-03	6.645626e-03	0.000000e+00	1.388344e-15	2.957835e+05	1.463566e+04	8.534705e-03	3.725532e+04	8.268730e+03	8.398645e+03	6.125511e-17	-inf	
4.000000e-01	0.000000e+00	1.889079e-03	6.645626e-03	0.000000e+00	-1.103217e-15	2.957835e+05	1.463566e+04	8.534705e-03	3.725532e+04	8.268730e+03	8.398645e+03	4.867504e-17	-inf	
6.000000e-01	0.000000e+00	1.889079e-03	6.645626e-03	0.000000e+00	-1.090939e-15	2.957835e+05	1.463566e+04	8.534705e-03	3.725532e+04	8.268730e+03	8.398645e+03	4.813332e-17	-inf	
8.000000e-01	0.000000e+00	1.889079e-03	6.645626e-03	3.417426e-16	0.000000e+00	2.957835e+05	1.463566e+04	8.534705e-03	3.725532e+04	8.268730e+03	8.398645e+03	1.507803e-17	-inf	
1.000000e+00	0.000000e+00	1.889079e-03	6.645626e-03	6.598384e-16	-1.164153e-16	2.957835e+05	1.463566e+04	8.534705e-03	3.725532e+04	8.268730e+03	8.398645e+03	2.956236e-17	-inf	
0.000000e+00	2.000000e-01	1.889079e-03	6.645626e-03	0.000000e+00	0.000000e+00	2.957835e+05	1.463566e+04	8.534705e-03	3.725532e+04	8.268730e+03	8.398645e+03	0.000000e+00	-inf	
2.000000e-01	2.000000e-01	1.889079e-03	6.645626e-03	-6.962182e-16	-1.818989e-18	2.957835e+05	1.463566e+04	8.534705e-03	3.725532e+04	8.268730e+03	8.398645e+03	3.071795e-17	-inf	
4.000000e-01	2.000000e-01	1.889079e-03	6.645626e-03	-6.932623e-16	3.435616e-16	2.957835e+05	1.463566e+04	8.534705e-03	3.725532e+04	8.268730e+03	8.398645e+03	3.413743e-17	-inf	
6.000000e-01	2.000000e-01	1.889079e-03	6.645626e-03	0.000000e+00	9.049472e-16	2.957835e+05	1.463566e+04	8.534705e-03	3.725532e+04	8.268730e+03	8.398645e+03	3.992718e-17	-inf	
8.000000e-01	2.000000e-01	1.889079e-03	6.645626e-03	3.267360e-16	-5.422862e-16	2.957835e+05	1.463566e+04	8.534705e-03	3.725532e+04	8.268730e+03	8.398645e+03	2.793353e-17	-inf	
1.000000e+00	2.000000e-01	1.889079e-03	6.645626e-03	6.489245e-16	-3.249170e-16	2.957835e+05	1.463566e+04	8.534705e-03	3.725532e+04	8.268730e+03	8.398645e+03	3.201963e-17	-inf	
0.000000e+00	4.000000e-01	1.889079e-03	6.645626e-03	-1.257831e-15	0.000000e+00	2.957835e+05	1.463566e+04	8.534705e-03	3.725532e+04	8.268730e+03	8.398645e+03	5.549677e-17	-inf	
2.000000e-01	4.000000e-01	1.889079e-03	6.645626e-03	6.939226e-16	0.000000e+00	2.957835e+05	1.463566e+04	8.534705e-03	3.725532e+04	8.268730e+03	8.398645e+03	3.061656e-17	-inf	
4.000000e-01	4.000000e-01	1.889079e-03	6.645626e-03	2.700980e-16	0.000000e+00	2.957835e+05	1.463566e+04	8.534705e-03	3.725532e+04	8.268730e+03	8.398645e+03	1.191700e-17	-inf	
6.000000e-01	4.000000e-01	1.889079e-03	6.645626e-03	-8.542429e-16	-9.094947e-19	2.957835e+05	1.463566e+04	8.534705e-03	3.725532e+04	8.268730e+03	8.398645e+03	3.769007e-17	-inf	
8.000000e-01	4.000000e-01	1.889079e-03	6.645626e-03	-3.562945e-16	0.000000e+00	2.957835e+05	1.463566e+04	8.534705e-03	3.725532e+04	8.268730e+03	8.398645e+03	1.572007e-17	-inf	
1.000000e+00	4.000000e-01	1.889079e-03	6.645626e-03	0.000000e+00	0.000000e+00	2.957835e+05	1.463566e+04	8.534705e-03	3.725532e+04	8.268730e+03	8.398645e+03	0.000000e+00	-inf	
0.000000e+00	6.000000e-01	1.889079e-03	6.645626e-03	1.103217e-15	3.417426e-16	2.957835e+05	1.463566e+04	8.534705e-03	3.725532e+04	8.268730e+03	8.398645e+03	5.095691e-17	-inf	
2.000000e-01	6.000000e-01	1.889079e-03	6.645626e-03	2.815057e-17	1.818989e-18	2.957835e+05	1.463566e+04	8.534705e-03	3.725532e+04	8.268730e+03	8.398645e+03	1.244621e-18	-inf	
4.000000e-01	6.000000e-01	1.889079e-03	6.645626e-03	0.000000e+00	-3.435616e-16	2.957835e+05	1.463566e+04	8.534705e-03	3.725532e+04	8.268730e+03	8.398645e+03	1.515828e-17	-inf	
6.000000e-01	6.000000e-01	1.889079e-03	6.645626e-03	-2.815057e-17	-3.612968e-16	2.957835e+05	1.463566e+04	8.534705e-03	3.725532e+04	8.268730e+03	8.398645e+03	1.598909e-17	-inf	
8.000000e-01	6.000000e-01	1.889079e-03	6.645626e-03	5.820766e-16	-9.094947e-19	2.957835e+05	1.463566e+04	8.534705e-03	3.725532e+04	8.268730e+03	8.398645e+03	2.568184e-17	-inf	
1.000000e+00	6.000000e-01	1.889079e-03	6.645626e-03	1.259650e-15	-9.094947e-19	2.957835e+05	1.463566e+04	8.534705e-03	3.725532e+04	8.268730e+03	8.398645e+03	5.557704e-17	-inf	
0.000000e+00	8.000000e-01	1.889079e-03	6.645626e-03	-6.102709e-16	0.000000e+00	2.957835e+05	1.463566e+04	8.534705e-03	3.725532e+04	8.268730e+03	8.398645e+03	2.692577e-17	-inf	
2.000000e-01	8.000000e-01	1.889079e-03	6.645626e-03	-3.612968e-16	6.953087e-16	2.957835e+05	1.463566e+04	8.534705e-03	3.725532e+04	8.268730e+03	8.398645e+03	3.457211e-17	-inf	
4.000000e-01	8.000000e-01	1.889079e-03	6.645626e-03	-9.094947e-19	0.000000e+00	2.957835e+05	1.463566e+04	8.534705e-03	3.725532e+04	8.268730e+03	8.398645e+03	4.012782e-20	-inf	
6.000000e-01	8.000000e-01	1.889079e-03	6.645626e-03	0.000000e+00	-6.812115e-16	2.957835e+05	1.463566e+04	8.534705e-03	3.725532e+04	8.268730e+03	8.398645e+03	3.005574e-17	-inf	
8.000000e-01	8.000000e-01	1.889079e-03	6.645626e-03	0.000000e+00	3.369678e-16	2.957835e+05	1.463566e+04	8.534705e-03	3.725532e+04	8.268730e+03	8.398645e+03	1.486736e-17	-inf	
1.000000e+00	8.000000e-01	1.889079e-03	6.645626e-03	-1.089120e-15	-3.328751e-16	2.957835e+05	1.463566e+04	8.534705e-03	3.725532e+04	8.268730e+03	8.398645e+03	5.024737e-17	-inf	
0.000000e+00	1.000000e+00	1.889079e-03	6.645626e-03	1.818989e-18	-6.853043e-16	2.957835e+05	1.463566e+04	8.534705e-03	3.725532e+04	8.268730e+03	8.398645e+03	3.023642e-17	-inf	
2.000000e-01	1.000000e+00	1.889079e-03	6.645626e-03	0.000000e+00	0.000000e+00	2.957835e+05	1.463566e+04	8.534705e-03	3.725532e+04	8.268730e+03	8.398645e+03	0.000000e+00	-inf	
4.000000e-01	1.000000e+00	1.889079e-03	6.645626e-03	0.000000e+00	0.000000e+00	2.957835e+05	1.463566e+04	8.534705e-03	3.725532e+04	8.268730e+03	8.398645e+03	0.000000e+00	-inf	
6.000000e-01	1.000000e+00	1.889079e-03	6.645626e-03	3.585683e-16	-8.280949e-16	2.957835e+05	1.463566e+04	8.534705e-03	3.725532e+04	8.268730e+03	8.398645e+03	3.981447e-17	-inf	
8.000000e-01	1.000000e+00	1.889079e-03	6.645626e-03	0.000000e+00	4.333742e-16	2.957835e+05	1.463566e+04	8.534705e-03	3.725532e+04	8.268730e+03	8.398645e+03	1.912091e-17	-inf	
1.000000e+00	1.000000e+00	1.889079e-03	6.645626e-03	-7.153176e-16	8.594725e-17	2.957835e+05	1.463566e+04	8.534705e-03	3.725532e+04	8.268730e+03	8.398645e+03	3.178753e-17	-inf	
1	2	8	7
2	3	9	8
3	4	10	9
4	5	11	10
5	6	12	11
7	8	14	13
8	9	15	14
9	10	16	15
10	11	17	16
11	12	18	17
13	14	20	19
14	15	21	20
15	16	22	21
16	17	23	22
17	18	24	23
19	20	26	25
20	21	27	26
21	22	28	27
22	23	29	28
23	24	30	29
25	26	32	31
26	27	33	32
27	28	34	33
28	29	35	34
29	30	36	35
