TITLE = "Visualization of the volumetric solution"
VARIABLES = "x","y","Density[0]","Density[1]","Momentum_x","Momentum_y","Energy","Electronic_Energy","Total_Density","Pressure","Temperature","Tve","Mach","C<sub>p</sub>"
ZONE STRANDID=2781, SOLUTIONTIME=2.78e-05, NODES= 36, ELEMENTS= 25, DATAPACKING=POINT, ZONETYPE=FEQUADRILATERAL
0.000000e+00	0.000000e+00	2.166645e-03	6.368060e-03	0.000000e+00	0.000000e+00	2.957835e+05	1.962531e+04	8.534705e-03	3.941618e+04	8.911268e+03	9.396993e+03	0.000000e+00	-inf	
2.000000e-01	0.000000e+00	2.166645e-03	6.368060e-03	0.000000e+00	6.348273e-16	2.957835e+05	1.962531e+04	8.534705e-03	3.941618e+04	8.911268e+03	9.396993e+03	2.729691e-17	-inf	
4.000000e-01	0.000000e+00	2.166645e-03	6.368060e-03	0.000000e+00	-5.043148e-16	2.957835e+05	1.962531e+04	8.534705e-03	3.941618e+04	8.911268e+03	9.396993e+03	2.168501e-17	-inf	
6.000000e-01	0.000000e+00	2.166645e-03	6.368060e-03	0.000000e+00	-1.214175e-16	2.957835e+05	1.962531e+04	8.534705e-03	3.941618e+04	8.911268e+03	9.396993e+03	5.220828e-18	-inf	
8.000000e-01	0.000000e+00	2.166645e-03	6.368060e-03	2.357865e-16	0.000000e+00	2.957835e+05	1.962531e+04	8.534705e-03	3.941618e+04	8.911268e+03	9.396993e+03	1.013857e-17	-inf	
1.000000e+00	0.000000e+00	2.166645e-03	6.368060e-03	4.074536e-16	2.132765e-16	2.957835e+05	1.962531e+04	8.534705e-03	3.941618e+04	8.911268e+03	9.396993e+03	1.977509e-17	-inf	
0.000000e+00	2.000000e-01	2.166645e-03	6.368060e-03	0.000000e+00	0.000000e+00	2.957835e+05	1.962531e+04	8.534705e-03	3.941618e+04	8.911268e+03	9.396993e+03	0.000000e+00	-inf	
2.000000e-01	2.000000e-01	2.166645e-03	6.368060e-03	-2.630713e-16	-1.818989e-18	2.957835e+05	1.962531e+04	8.534705e-03	3.941618e+04	8.911268e+03	9.396993e+03	1.131206e-17	-inf	
4.000000e-01	2.000000e-01	2.166645e-03	6.368060e-03	-3.165042e-16	2.376055e-16	2.957835e+05	1.962531e+04	8.534705e-03	3.941618e+04	8.911268e+03	9.396993e+03	1.701755e-17	-inf	
6.000000e-01	2.000000e-01	2.166645e-03	6.368060e-03	0.000000e+00	3.008154e-16	2.957835e+05	1.962531e+04	8.534705e-03	3.941618e+04	8.911268e+03	9.396993e+03	1.293475e-17	-inf	
8.000000e-01	2.000000e-01	2.166645e-03	6.368060e-03	2.246452e-16	-1.421085e-16	2.957835e+05	1.962531e+04	8.534705e-03	3.941618e+04	8.911268e+03	9.396993e+03	1.142999e-17	-inf	
1.000000e+00	2.000000e-01	2.166645e-03	6.368060e-03	4.120011e-16	-2.012257e-16	2.957835e+05	1.962531e+04	8.534705e-03	3.941618e+04	8.911268e+03	9.396993e+03	1.971570e-17	-inf	
0.000000e+00	4.000000e-01	2.166645e-03	6.368060e-03	-7.116796e-16	0.000000e+00	2.957835e+05	1.962531e+04	8.534705e-03	3.941618e+04	8.911268e+03	9.396993e+03	3.060148e-17	-inf	
2.000000e-01	4.000000e-01	2.166645e-03	6.368060e-03	3.691809e-16	0.000000e+00	2.957835e+05	1.962531e+04	8.534705e-03	3.941618e+04	8.911268e+03	9.396993e+03	1.587439e-17	-inf	
4.000000e-01	4.000000e-01	2.166645e-03	6.368060e-03	1.825071e-16	0.000000e+00	2.957835e+05	1.962531e+04	8.534705e-03	3.941618e+04	8.911268e+03	9.396993e+03	7.847614e-18	-inf	
6.000000e-01	4.000000e-01	2.166645e-03	6.368060e-03	-2.498837e-16	-9.094947e-19	2.957835e+05	1.962531e+04	8.534705e-03	3.941618e+04	8.911268e+03	9.396993e+03	1.074481e-17	-inf	
8.000000e-01	4.000000e-01	2.166645e-03	6.368060e-03	-2.387424e-16	0.000000e+00	2.957835e+05	1.962531e+04	8.534705e-03	3.941618e+04	8.911268e+03	9.396993e+03	1.026567e-17	-inf	
1.000000e+00	4.000000e-01	2.166645e-03	6.368060e-03	0.000000e+00	0.000000e+00	2.957835e+05	1.962531e+04	8.534705e-03	3.941618e+04	8.911268e+03	9.396993e+03	0.000000e+00	-inf	
0.000000e+00	6.000000e-01	2.166645e-03	6.368060e-03	5.043148e-16	2.357865e-16	2.957835e+05	1.962531e+04	8.534705e-03	3.941618e+04	8.911268e+03	9.396993e+03	2.393805e-17	-inf	
2.000000e-01	6.000000e-01	2.166645e-03	6.368060e-03	-2.106636e-17	1.818989e-18	2.957835e+05	1.962531e+04	8.534705e-03	3.941618e+04	8.911268e+03	9.396993e+03	9.092018e-19	-inf	
4.000000e-01	6.000000e-01	2.166645e-03	6.368060e-03	0.000000e+00	-2.376055e-16	2.957835e+05	1.962531e+04	8.534705e-03	3.941618e+04	8.911268e+03	9.396993e+03	1.021679e-17	-inf	
6.000000e-01	6.000000e-01	2.166645e-03	6.368060e-03	2.106636e-17	-2.419256e-16	2.957835e+05	1.962531e+04	8.534705e-03	3.941618e+04	8.911268e+03	9.396993e+03	1.044191e-17	-inf	
8.000000e-01	6.000000e-01	2.166645e-03	6.368060e-03	2.396519e-16	-9.094947e-19	2.957835e+05	1.962531e+04	8.534705e-03	3.941618e+04	8.911268e+03	9.396993e+03	1.030485e-17	-inf	
1.000000e+00	6.000000e-01	2.166645e-03	6.368060e-03	5.006768e-16	-9.094947e-19	2.957835e+05	1.962531e+04	8.534705e-03	3.941618e+04	8.911268e+03	9.396993e+03	2.152862e-17	-inf	
0.000000e+00	8.000000e-01	2.166645e-03	6.368060e-03	-3.747118e-16	0.000000e+00	2.957835e+05	1.962531e+04	8.534705e-03	3.941618e+04	8.911268e+03	9.396993e+03	1.611222e-17	-inf	
2.000000e-01	8.000000e-01	2.166645e-03	6.368060e-03	-2.419256e-16	2.621618e-16	2.957835e+05	1.962531e+04	8.534705e-03	3.941618e+04	8.911268e+03	9.396993e+03	1.533905e-17	-inf	
4.000000e-01	8.000000e-01	2.166645e-03	6.368060e-03	-9.094947e-19	0.000000e+00	2.957835e+05	1.962531e+04	8.534705e-03	3.941618e+04	8.911268e+03	9.396993e+03	3.910732e-20	-inf	
6.000000e-01	8.000000e-01	2.166645e-03	6.368060e-03	0.000000e+00	-2.617071e-16	2.957835e+05	1.962531e+04	8.534705e-03	3.941618e+04	8.911268e+03	9.396993e+03	1.125313e-17	-inf	
8.000000e-01	8.000000e-01	2.166645e-03	6.368060e-03	0.000000e+00	2.341949e-16	2.957835e+05	1.962531e+04	8.534705e-03	3.941618e+04	8.911268e+03	9.396993e+03	1.007014e-17	-inf	
1.000000e+00	8.000000e-01	2.166645e-03	6.368060e-03	-1.195986e-16	-2.250999e-16	2.957835e+05	1.962531e+04	8.534705e-03	3.941618e+04	8.911268e+03	9.396993e+03	1.096042e-17	-inf	
0.000000e+00	1.000000e+00	2.166645e-03	6.368060e-03	1.818989e-18	-4.733920e-16	2.957835e+05	1.962531e+04	8.534705e-03	3.941618e+04	8.911268e+03	9.396993e+03	2.035551e-17	-inf	
2.000000e-01	1.000000e+00	2.166645e-03	6.368060e-03	0.000000e+00	0.000000e+00	2.957835e+05	1.962531e+04	8.534705e-03	3.941618e+04	8.911268e+03	9.396993e+03	0.000000e+00	-inf	
4.000000e-01	1.000000e+00	2.166645e-03	6.368060e-03	0.000000e+00	0.000000e+00	2.957835e+05	1.962531e+04	8.534705e-03	3.941618e+04	8.911268e+03	9.396993e+03	0.000000e+00	-inf	
6.000000e-01	1.000000e+00	2.166645e-03	6.368060e-03	2.410161e-16	-9.868018e-17	2.957835e+05	1.962531e+04	8.534705e-03	3.941618e+04	8.911268e+03	9.396993e+03	1.119845e-17	-inf	
8.000000e-01	1.000000e+00	2.166645e-03	6.368060e-03	0.000000e+00	5.893526e-16	2.957835e+05	1.962531e+04	8.534705e-03	3.941618e+04	8.911268e+03	9.396993e+03	2.534155e-17	-inf	
1.000000e+00	1.000000e+00	2.166645e-03	6.368060e-03	-4.802132e-16	-2.087290e-16	2.957835e+05	1.962531e+04	8.534705e-03	3.941618e+04	8.911268e+03	9.396993e+03	2.251489e-17	-inf	
1	2	8	7
2	3	9	8
3	4	10	9
4	5	11	10
5	6	12	11
7	8	14	13
8	9	15	14
9	10	16	15
10	11	17	16
11	12	18	17
13	14	20	19
14	15	21	20
15	16	22	21
16	17	23	22
17	18	24	23
19	20	26	25
20	21	27	26
21	22	28	27
22	23	29	28
23	24	30	29
25	26	32	31
26	27	33	32
27	28	34	33
28	29	35	34
29	30	36	35
