TITLE = "Visualization of the volumetric solution"
VARIABLES = "x","y","Density[0]","Density[1]","Momentum_x","Momentum_y","Energy","Electronic_Energy","Total_Density","Pressure","Temperature","Tve","Mach","C<sub>p</sub>"
ZONE STRANDID=3580, SOLUTIONTIME=3.579e-05, NODES= 36, ELEMENTS= 25, DATAPACKING=POINT, ZONETYPE=FEQUADRILATERAL
0.000000e+00	0.000000e+00	2.099686e-03	6.435019e-03	0.000000e+00	0.000000e+00	2.957835e+05	1.822307e+04	8.534705e-03	3.902270e+04	8.782847e+03	9.121053e+03	0.000000e+00	-inf	
2.000000e-01	0.000000e+00	2.099686e-03	6.435019e-03	0.000000e+00	7.794370e-16	2.957835e+05	1.822307e+04	8.534705e-03	3.902270e+04	8.782847e+03	9.121053e+03	3.366366e-17	-inf	
4.000000e-01	0.000000e+00	2.099686e-03	6.435019e-03	0.000000e+00	-6.430128e-16	2.957835e+05	1.822307e+04	8.534705e-03	3.902270e+04	8.782847e+03	9.121053e+03	2.777154e-17	-inf	
6.000000e-01	0.000000e+00	2.099686e-03	6.435019e-03	0.000000e+00	-1.982698e-16	2.957835e+05	1.822307e+04	8.534705e-03	3.902270e+04	8.782847e+03	9.121053e+03	8.563217e-18	-inf	
8.000000e-01	0.000000e+00	2.099686e-03	6.435019e-03	1.632543e-16	0.000000e+00	2.957835e+05	1.822307e+04	8.534705e-03	3.902270e+04	8.782847e+03	9.121053e+03	7.050906e-18	-inf	
1.000000e+00	0.000000e+00	2.099686e-03	6.435019e-03	2.728484e-16	3.601599e-16	2.957835e+05	1.822307e+04	8.534705e-03	3.902270e+04	8.782847e+03	9.121053e+03	1.951494e-17	-inf	
0.000000e+00	2.000000e-01	2.099686e-03	6.435019e-03	0.000000e+00	0.000000e+00	2.957835e+05	1.822307e+04	8.534705e-03	3.902270e+04	8.782847e+03	9.121053e+03	0.000000e+00	-inf	
2.000000e-01	2.000000e-01	2.099686e-03	6.435019e-03	-3.326477e-16	-1.818989e-18	2.957835e+05	1.822307e+04	8.534705e-03	3.902270e+04	8.782847e+03	9.121053e+03	1.436717e-17	-inf	
4.000000e-01	2.000000e-01	2.099686e-03	6.435019e-03	-3.888090e-16	1.650733e-16	2.957835e+05	1.822307e+04	8.534705e-03	3.902270e+04	8.782847e+03	9.121053e+03	1.824333e-17	-inf	
6.000000e-01	2.000000e-01	2.099686e-03	6.435019e-03	0.000000e+00	2.689831e-16	2.957835e+05	1.822307e+04	8.534705e-03	3.902270e+04	8.782847e+03	9.121053e+03	1.161730e-17	-inf	
8.000000e-01	2.000000e-01	2.099686e-03	6.435019e-03	1.525677e-16	-1.946319e-16	2.957835e+05	1.822307e+04	8.534705e-03	3.902270e+04	8.782847e+03	9.121053e+03	1.068092e-17	-inf	
1.000000e+00	2.000000e-01	2.099686e-03	6.435019e-03	2.805791e-16	-1.355147e-16	2.957835e+05	1.822307e+04	8.534705e-03	3.902270e+04	8.782847e+03	9.121053e+03	1.345752e-17	-inf	
0.000000e+00	4.000000e-01	2.099686e-03	6.435019e-03	-8.594725e-16	0.000000e+00	2.957835e+05	1.822307e+04	8.534705e-03	3.902270e+04	8.782847e+03	9.121053e+03	3.712037e-17	-inf	
2.000000e-01	4.000000e-01	2.099686e-03	6.435019e-03	3.322032e-16	0.000000e+00	2.957835e+05	1.822307e+04	8.534705e-03	3.902270e+04	8.782847e+03	9.121053e+03	1.434776e-17	-inf	
4.000000e-01	4.000000e-01	2.099686e-03	6.435019e-03	1.177899e-16	0.000000e+00	2.957835e+05	1.822307e+04	8.534705e-03	3.902270e+04	8.782847e+03	9.121053e+03	5.087310e-18	-inf	
6.000000e-01	4.000000e-01	2.099686e-03	6.435019e-03	-2.175966e-16	-9.094947e-19	2.957835e+05	1.822307e+04	8.534705e-03	3.902270e+04	8.782847e+03	9.121053e+03	9.398017e-18	-inf	
8.000000e-01	4.000000e-01	2.099686e-03	6.435019e-03	-1.691660e-16	0.000000e+00	2.957835e+05	1.822307e+04	8.534705e-03	3.902270e+04	8.782847e+03	9.121053e+03	7.306231e-18	-inf	
1.000000e+00	4.000000e-01	2.099686e-03	6.435019e-03	0.000000e+00	0.000000e+00	2.957835e+05	1.822307e+04	8.534705e-03	3.902270e+04	8.782847e+03	9.121053e+03	0.000000e+00	-inf	
0.000000e+00	6.000000e-01	2.099686e-03	6.435019e-03	6.430128e-16	1.632543e-16	2.957835e+05	1.822307e+04	8.534705e-03	3.902270e+04	8.782847e+03	9.121053e+03	2.865263e-17	-inf	
2.000000e-01	6.000000e-01	2.099686e-03	6.435019e-03	-3.499496e-17	1.818989e-18	2.957835e+05	1.822307e+04	8.534705e-03	3.902270e+04	8.782847e+03	9.121053e+03	1.513463e-18	-inf	
4.000000e-01	6.000000e-01	2.099686e-03	6.435019e-03	0.000000e+00	-1.650733e-16	2.957835e+05	1.822307e+04	8.534705e-03	3.902270e+04	8.782847e+03	9.121053e+03	7.129468e-18	-inf	
6.000000e-01	6.000000e-01	2.099686e-03	6.435019e-03	3.499496e-17	-1.716671e-16	2.957835e+05	1.822307e+04	8.534705e-03	3.902270e+04	8.782847e+03	9.121053e+03	7.566740e-18	-inf	
8.000000e-01	6.000000e-01	2.099686e-03	6.435019e-03	1.700755e-16	-9.094947e-19	2.957835e+05	1.822307e+04	8.534705e-03	3.902270e+04	8.782847e+03	9.121053e+03	7.345617e-18	-inf	
1.000000e+00	6.000000e-01	2.099686e-03	6.435019e-03	4.361027e-16	-9.094947e-19	2.957835e+05	1.822307e+04	8.534705e-03	3.902270e+04	8.782847e+03	9.121053e+03	1.883519e-17	-inf	
0.000000e+00	8.000000e-01	2.099686e-03	6.435019e-03	-2.346496e-16	0.000000e+00	2.957835e+05	1.822307e+04	8.534705e-03	3.902270e+04	8.782847e+03	9.121053e+03	1.013445e-17	-inf	
2.000000e-01	8.000000e-01	2.099686e-03	6.435019e-03	-1.716671e-16	3.317382e-16	2.957835e+05	1.822307e+04	8.534705e-03	3.902270e+04	8.782847e+03	9.121053e+03	1.613237e-17	-inf	
4.000000e-01	8.000000e-01	2.099686e-03	6.435019e-03	-9.094947e-19	0.000000e+00	2.957835e+05	1.822307e+04	8.534705e-03	3.902270e+04	8.782847e+03	9.121053e+03	3.928081e-20	-inf	
6.000000e-01	8.000000e-01	2.099686e-03	6.435019e-03	0.000000e+00	-3.349214e-16	2.957835e+05	1.822307e+04	8.534705e-03	3.902270e+04	8.782847e+03	9.121053e+03	1.446516e-17	-inf	
8.000000e-01	8.000000e-01	2.099686e-03	6.435019e-03	0.000000e+00	1.630269e-16	2.957835e+05	1.822307e+04	8.534705e-03	3.902270e+04	8.782847e+03	9.121053e+03	7.041086e-18	-inf	
1.000000e+00	8.000000e-01	2.099686e-03	6.435019e-03	-1.964509e-16	-1.530225e-16	2.957835e+05	1.822307e+04	8.534705e-03	3.902270e+04	8.782847e+03	9.121053e+03	1.075492e-17	-inf	
0.000000e+00	1.000000e+00	2.099686e-03	6.435019e-03	1.818989e-18	-3.283276e-16	2.957835e+05	1.822307e+04	8.534705e-03	3.902270e+04	8.782847e+03	9.121053e+03	1.418059e-17	-inf	
2.000000e-01	1.000000e+00	2.099686e-03	6.435019e-03	0.000000e+00	0.000000e+00	2.957835e+05	1.822307e+04	8.534705e-03	3.902270e+04	8.782847e+03	9.121053e+03	0.000000e+00	-inf	
4.000000e-01	1.000000e+00	2.099686e-03	6.435019e-03	0.000000e+00	0.000000e+00	2.957835e+05	1.822307e+04	8.534705e-03	3.902270e+04	8.782847e+03	9.121053e+03	0.000000e+00	-inf	
6.000000e-01	1.000000e+00	2.099686e-03	6.435019e-03	1.714398e-16	-1.678018e-16	2.957835e+05	1.822307e+04	8.534705e-03	3.902270e+04	8.782847e+03	9.121053e+03	1.036094e-17	-inf	
8.000000e-01	1.000000e+00	2.099686e-03	6.435019e-03	0.000000e+00	6.330083e-16	2.957835e+05	1.822307e+04	8.534705e-03	3.902270e+04	8.782847e+03	9.121053e+03	2.733945e-17	-inf	
1.000000e+00	1.000000e+00	2.099686e-03	6.435019e-03	-3.410605e-16	-3.578862e-16	2.957835e+05	1.822307e+04	8.534705e-03	3.902270e+04	8.782847e+03	9.121053e+03	2.135183e-17	-inf	
1	2	8	7
2	3	9	8
3	4	10	9
4	5	11	10
5	6	12	11
7	8	14	13
8	9	15	14
9	10	16	15
10	11	17	16
11	12	18	17
13	14	20	19
14	15	21	20
15	16	22	21
16	17	23	22
17	18	24	23
19	20	26	25
20	21	27	26
21	22	28	27
22	23	29	28
23	24	30	29
25	26	32	31
26	27	33	32
27	28	34	33
28	29	35	34
29	30	36	35
