TITLE = "Visualization of the volumetric solution"
VARIABLES = "x","y","Density[0]","Density[1]","Momentum_x","Momentum_y","Energy","Electronic_Energy","Total_Density","Pressure","Temperature","Tve","Mach","C<sub>p</sub>"
ZONE STRANDID=5502, SOLUTIONTIME=5.501e-05, NODES= 36, ELEMENTS= 25, DATAPACKING=POINT, ZONETYPE=FEQUADRILATERAL
0.000000e+00	0.000000e+00	1.992924e-03	6.541781e-03	0.000000e+00	0.000000e+00	2.957835e+05	1.630236e+04	8.534705e-03	3.819493e+04	8.535665e+03	8.737773e+03	0.000000e+00	-inf	
2.000000e-01	0.000000e+00	1.992924e-03	6.541781e-03	0.000000e+00	1.107310e-15	2.957835e+05	1.630236e+04	8.534705e-03	3.819493e+04	8.535665e+03	8.737773e+03	4.829462e-17	-inf	
4.000000e-01	0.000000e+00	1.992924e-03	6.541781e-03	0.000000e+00	-8.226380e-16	2.957835e+05	1.630236e+04	8.534705e-03	3.819493e+04	8.535665e+03	8.737773e+03	3.587884e-17	-inf	
6.000000e-01	0.000000e+00	1.992924e-03	6.541781e-03	0.000000e+00	-5.393304e-16	2.957835e+05	1.630236e+04	8.534705e-03	3.819493e+04	8.535665e+03	8.737773e+03	2.352255e-17	-inf	
8.000000e-01	0.000000e+00	1.992924e-03	6.541781e-03	8.162715e-17	0.000000e+00	2.957835e+05	1.630236e+04	8.534705e-03	3.819493e+04	8.535665e+03	8.737773e+03	3.560117e-18	-inf	
1.000000e+00	0.000000e+00	1.992924e-03	6.541781e-03	8.731149e-17	1.323315e-16	2.957835e+05	1.630236e+04	8.534705e-03	3.819493e+04	8.535665e+03	8.737773e+03	6.914620e-18	-inf	
0.000000e+00	2.000000e-01	1.992924e-03	6.541781e-03	0.000000e+00	0.000000e+00	2.957835e+05	1.630236e+04	8.534705e-03	3.819493e+04	8.535665e+03	8.737773e+03	0.000000e+00	-inf	
2.000000e-01	2.000000e-01	1.992924e-03	6.541781e-03	-4.220055e-16	-1.818989e-18	2.957835e+05	1.630236e+04	8.534705e-03	3.819493e+04	8.535665e+03	8.737773e+03	1.840568e-17	-inf	
4.000000e-01	2.000000e-01	1.992924e-03	6.541781e-03	-5.527454e-16	8.344614e-17	2.957835e+05	1.630236e+04	8.534705e-03	3.819493e+04	8.535665e+03	8.737773e+03	2.438081e-17	-inf	
6.000000e-01	2.000000e-01	1.992924e-03	6.541781e-03	0.000000e+00	3.512923e-16	2.957835e+05	1.630236e+04	8.534705e-03	3.819493e+04	8.535665e+03	8.737773e+03	1.532139e-17	-inf	
8.000000e-01	2.000000e-01	1.992924e-03	6.541781e-03	6.775736e-17	-2.844445e-16	2.957835e+05	1.630236e+04	8.534705e-03	3.819493e+04	8.535665e+03	8.737773e+03	1.275299e-17	-inf	
1.000000e+00	2.000000e-01	1.992924e-03	6.541781e-03	9.868018e-17	-4.297362e-17	2.957835e+05	1.630236e+04	8.534705e-03	3.819493e+04	8.535665e+03	8.737773e+03	4.694274e-18	-inf	
0.000000e+00	4.000000e-01	1.992924e-03	6.541781e-03	-1.212811e-15	0.000000e+00	2.957835e+05	1.630236e+04	8.534705e-03	3.819493e+04	8.535665e+03	8.737773e+03	5.289600e-17	-inf	
2.000000e-01	4.000000e-01	1.992924e-03	6.541781e-03	3.551688e-16	0.000000e+00	2.957835e+05	1.630236e+04	8.534705e-03	3.819493e+04	8.535665e+03	8.737773e+03	1.549046e-17	-inf	
4.000000e-01	4.000000e-01	1.992924e-03	6.541781e-03	5.344394e-17	0.000000e+00	2.957835e+05	1.630236e+04	8.534705e-03	3.819493e+04	8.535665e+03	8.737773e+03	2.330924e-18	-inf	
6.000000e-01	4.000000e-01	1.992924e-03	6.541781e-03	-2.974048e-16	-9.094947e-19	2.957835e+05	1.630236e+04	8.534705e-03	3.819493e+04	8.535665e+03	8.737773e+03	1.297118e-17	-inf	
8.000000e-01	4.000000e-01	1.992924e-03	6.541781e-03	-9.208634e-17	0.000000e+00	2.957835e+05	1.630236e+04	8.534705e-03	3.819493e+04	8.535665e+03	8.737773e+03	4.016288e-18	-inf	
1.000000e+00	4.000000e-01	1.992924e-03	6.541781e-03	0.000000e+00	0.000000e+00	2.957835e+05	1.630236e+04	8.534705e-03	3.819493e+04	8.535665e+03	8.737773e+03	0.000000e+00	-inf	
0.000000e+00	6.000000e-01	1.992924e-03	6.541781e-03	8.226380e-16	8.162715e-17	2.957835e+05	1.630236e+04	8.534705e-03	3.819493e+04	8.535665e+03	8.737773e+03	3.605503e-17	-inf	
2.000000e-01	6.000000e-01	1.992924e-03	6.541781e-03	1.613862e-18	1.818989e-18	2.957835e+05	1.630236e+04	8.534705e-03	3.819493e+04	8.535665e+03	8.737773e+03	1.060580e-19	-inf	
4.000000e-01	6.000000e-01	1.992924e-03	6.541781e-03	0.000000e+00	-8.344614e-17	2.957835e+05	1.630236e+04	8.534705e-03	3.819493e+04	8.535665e+03	8.737773e+03	3.639451e-18	-inf	
6.000000e-01	6.000000e-01	1.992924e-03	6.541781e-03	-1.613862e-18	-8.344614e-17	2.957835e+05	1.630236e+04	8.534705e-03	3.819493e+04	8.535665e+03	8.737773e+03	3.640131e-18	-inf	
8.000000e-01	6.000000e-01	1.992924e-03	6.541781e-03	9.299583e-17	-9.094947e-19	2.957835e+05	1.630236e+04	8.534705e-03	3.819493e+04	8.535665e+03	8.737773e+03	4.056149e-18	-inf	
1.000000e+00	6.000000e-01	1.992924e-03	6.541781e-03	5.957190e-16	-9.094947e-19	2.957835e+05	1.630236e+04	8.534705e-03	3.819493e+04	8.535665e+03	8.737773e+03	2.598194e-17	-inf	
0.000000e+00	8.000000e-01	1.992924e-03	6.541781e-03	-7.548806e-17	0.000000e+00	2.957835e+05	1.630236e+04	8.534705e-03	3.819493e+04	8.535665e+03	8.737773e+03	3.292364e-18	-inf	
2.000000e-01	8.000000e-01	1.992924e-03	6.541781e-03	-8.344614e-17	4.210960e-16	2.957835e+05	1.630236e+04	8.534705e-03	3.819493e+04	8.535665e+03	8.737773e+03	1.872297e-17	-inf	
4.000000e-01	8.000000e-01	1.992924e-03	6.541781e-03	-9.094947e-19	0.000000e+00	2.957835e+05	1.630236e+04	8.534705e-03	3.819493e+04	8.535665e+03	8.737773e+03	3.966704e-20	-inf	
6.000000e-01	8.000000e-01	1.992924e-03	6.541781e-03	0.000000e+00	-5.159109e-16	2.957835e+05	1.630236e+04	8.534705e-03	3.819493e+04	8.535665e+03	8.737773e+03	2.250113e-17	-inf	
8.000000e-01	8.000000e-01	1.992924e-03	6.541781e-03	0.000000e+00	8.139978e-17	2.957835e+05	1.630236e+04	8.534705e-03	3.819493e+04	8.535665e+03	8.737773e+03	3.550200e-18	-inf	
1.000000e+00	8.000000e-01	1.992924e-03	6.541781e-03	-5.375114e-16	-6.843948e-17	2.957835e+05	1.630236e+04	8.534705e-03	3.819493e+04	8.535665e+03	8.737773e+03	2.363249e-17	-inf	
0.000000e+00	1.000000e+00	1.992924e-03	6.541781e-03	1.818989e-18	-1.650733e-16	2.957835e+05	1.630236e+04	8.534705e-03	3.819493e+04	8.535665e+03	8.737773e+03	7.200005e-18	-inf	
2.000000e-01	1.000000e+00	1.992924e-03	6.541781e-03	0.000000e+00	0.000000e+00	2.957835e+05	1.630236e+04	8.534705e-03	3.819493e+04	8.535665e+03	8.737773e+03	0.000000e+00	-inf	
4.000000e-01	1.000000e+00	1.992924e-03	6.541781e-03	0.000000e+00	0.000000e+00	2.957835e+05	1.630236e+04	8.534705e-03	3.819493e+04	8.535665e+03	8.737773e+03	0.000000e+00	-inf	
6.000000e-01	1.000000e+00	1.992924e-03	6.541781e-03	9.436008e-17	-3.265086e-16	2.957835e+05	1.630236e+04	8.534705e-03	3.819493e+04	8.535665e+03	8.737773e+03	1.482322e-17	-inf	
8.000000e-01	1.000000e+00	1.992924e-03	6.541781e-03	0.000000e+00	2.123670e-16	2.957835e+05	1.630236e+04	8.534705e-03	3.819493e+04	8.535665e+03	8.737773e+03	9.262254e-18	-inf	
1.000000e+00	1.000000e+00	1.992924e-03	6.541781e-03	-1.869012e-16	-1.568878e-16	2.957835e+05	1.630236e+04	8.534705e-03	3.819493e+04	8.535665e+03	8.737773e+03	1.064279e-17	-inf	
1	2	8	7
2	3	9	8
3	4	10	9
4	5	11	10
5	6	12	11
7	8	14	13
8	9	15	14
9	10	16	15
10	11	17	16
11	12	18	17
13	14	20	19
14	15	21	20
15	16	22	21
16	17	23	22
17	18	24	23
19	20	26	25
20	21	27	26
21	22	28	27
22	23	29	28
23	24	30	29
25	26	32	31
26	27	33	32
27	28	34	33
28	29	35	34
29	30	36	35
