TITLE = "Visualization of the volumetric solution"
VARIABLES = "x","y","Density[0]","Density[1]","Momentum_x","Momentum_y","Energy","Electronic_Energy","Total_Density","Pressure","Temperature","Tve","Mach","C<sub>p</sub>"
ZONE STRANDID=3431, SOLUTIONTIME=3.43e-05, NODES= 36, ELEMENTS= 25, DATAPACKING=POINT, ZONETYPE=FEQUADRILATERAL
0.000000e+00	0.000000e+00	2.110717e-03	6.423988e-03	0.000000e+00	0.000000e+00	2.957835e+05	1.844127e+04	8.534705e-03	3.909557e+04	8.805738e+03	9.164202e+03	0.000000e+00	-inf	
2.000000e-01	0.000000e+00	2.110717e-03	6.423988e-03	0.000000e+00	7.539711e-16	2.957835e+05	1.844127e+04	8.534705e-03	3.909557e+04	8.805738e+03	9.164202e+03	3.253659e-17	-inf	
4.000000e-01	0.000000e+00	2.110717e-03	6.423988e-03	0.000000e+00	-6.184564e-16	2.957835e+05	1.844127e+04	8.534705e-03	3.909557e+04	8.805738e+03	9.164202e+03	2.668864e-17	-inf	
6.000000e-01	0.000000e+00	2.110717e-03	6.423988e-03	0.000000e+00	-1.864464e-16	2.957835e+05	1.844127e+04	8.534705e-03	3.909557e+04	8.805738e+03	9.164202e+03	8.045839e-18	-inf	
8.000000e-01	0.000000e+00	2.110717e-03	6.423988e-03	1.566605e-16	0.000000e+00	2.957835e+05	1.844127e+04	8.534705e-03	3.909557e+04	8.805738e+03	9.164202e+03	6.760467e-18	-inf	
1.000000e+00	0.000000e+00	2.110717e-03	6.423988e-03	2.537490e-16	3.356035e-16	2.957835e+05	1.844127e+04	8.534705e-03	3.909557e+04	8.805738e+03	9.164202e+03	1.815626e-17	-inf	
0.000000e+00	2.000000e-01	2.110717e-03	6.423988e-03	0.000000e+00	0.000000e+00	2.957835e+05	1.844127e+04	8.534705e-03	3.909557e+04	8.805738e+03	9.164202e+03	0.000000e+00	-inf	
2.000000e-01	2.000000e-01	2.110717e-03	6.423988e-03	-3.237801e-16	-1.818989e-18	2.957835e+05	1.844127e+04	8.534705e-03	3.909557e+04	8.805738e+03	9.164202e+03	1.397251e-17	-inf	
4.000000e-01	2.000000e-01	2.110717e-03	6.423988e-03	-3.760761e-16	1.584795e-16	2.957835e+05	1.844127e+04	8.534705e-03	3.909557e+04	8.805738e+03	9.164202e+03	1.761117e-17	-inf	
6.000000e-01	2.000000e-01	2.110717e-03	6.423988e-03	0.000000e+00	2.539764e-16	2.957835e+05	1.844127e+04	8.534705e-03	3.909557e+04	8.805738e+03	9.164202e+03	1.096000e-17	-inf	
8.000000e-01	2.000000e-01	2.110717e-03	6.423988e-03	1.455192e-16	-1.823537e-16	2.957835e+05	1.844127e+04	8.534705e-03	3.909557e+04	8.805738e+03	9.164202e+03	1.006772e-17	-inf	
1.000000e+00	2.000000e-01	2.110717e-03	6.423988e-03	2.623892e-16	-1.264198e-16	2.957835e+05	1.844127e+04	8.534705e-03	3.909557e+04	8.805738e+03	9.164202e+03	1.256875e-17	-inf	
0.000000e+00	4.000000e-01	2.110717e-03	6.423988e-03	-8.280949e-16	0.000000e+00	2.957835e+05	1.844127e+04	8.534705e-03	3.909557e+04	8.805738e+03	9.164202e+03	3.573530e-17	-inf	
2.000000e-01	4.000000e-01	2.110717e-03	6.423988e-03	3.172454e-16	0.000000e+00	2.957835e+05	1.844127e+04	8.534705e-03	3.909557e+04	8.805738e+03	9.164202e+03	1.369029e-17	-inf	
4.000000e-01	4.000000e-01	2.110717e-03	6.423988e-03	1.071521e-16	0.000000e+00	2.957835e+05	1.844127e+04	8.534705e-03	3.909557e+04	8.805738e+03	9.164202e+03	4.624003e-18	-inf	
6.000000e-01	4.000000e-01	2.110717e-03	6.423988e-03	-2.009983e-16	-9.094947e-19	2.957835e+05	1.844127e+04	8.534705e-03	3.909557e+04	8.805738e+03	9.164202e+03	8.673896e-18	-inf	
8.000000e-01	4.000000e-01	2.110717e-03	6.423988e-03	-1.621174e-16	0.000000e+00	2.957835e+05	1.844127e+04	8.534705e-03	3.909557e+04	8.805738e+03	9.164202e+03	6.995955e-18	-inf	
1.000000e+00	4.000000e-01	2.110717e-03	6.423988e-03	0.000000e+00	0.000000e+00	2.957835e+05	1.844127e+04	8.534705e-03	3.909557e+04	8.805738e+03	9.164202e+03	0.000000e+00	-inf	
0.000000e+00	6.000000e-01	2.110717e-03	6.423988e-03	6.184564e-16	1.566605e-16	2.957835e+05	1.844127e+04	8.534705e-03	3.909557e+04	8.805738e+03	9.164202e+03	2.753157e-17	-inf	
2.000000e-01	6.000000e-01	2.110717e-03	6.423988e-03	-3.057721e-17	1.818989e-18	2.957835e+05	1.844127e+04	8.534705e-03	3.909557e+04	8.805738e+03	9.164202e+03	1.321850e-18	-inf	
4.000000e-01	6.000000e-01	2.110717e-03	6.423988e-03	0.000000e+00	-1.584795e-16	2.957835e+05	1.844127e+04	8.534705e-03	3.909557e+04	8.805738e+03	9.164202e+03	6.838963e-18	-inf	
6.000000e-01	6.000000e-01	2.110717e-03	6.423988e-03	3.057721e-17	-1.625722e-16	2.957835e+05	1.844127e+04	8.534705e-03	3.909557e+04	8.805738e+03	9.164202e+03	7.138591e-18	-inf	
8.000000e-01	6.000000e-01	2.110717e-03	6.423988e-03	1.630269e-16	-9.094947e-19	2.957835e+05	1.844127e+04	8.534705e-03	3.909557e+04	8.805738e+03	9.164202e+03	7.035313e-18	-inf	
1.000000e+00	6.000000e-01	2.110717e-03	6.423988e-03	4.029062e-16	-9.094947e-19	2.957835e+05	1.844127e+04	8.534705e-03	3.909557e+04	8.805738e+03	9.164202e+03	1.738691e-17	-inf	
0.000000e+00	8.000000e-01	2.110717e-03	6.423988e-03	-2.173692e-16	0.000000e+00	2.957835e+05	1.844127e+04	8.534705e-03	3.909557e+04	8.805738e+03	9.164202e+03	9.380271e-18	-inf	
2.000000e-01	8.000000e-01	2.110717e-03	6.423988e-03	-1.625722e-16	3.228706e-16	2.957835e+05	1.844127e+04	8.534705e-03	3.909557e+04	8.805738e+03	9.164202e+03	1.559961e-17	-inf	
4.000000e-01	8.000000e-01	2.110717e-03	6.423988e-03	-9.094947e-19	0.000000e+00	2.957835e+05	1.844127e+04	8.534705e-03	3.909557e+04	8.805738e+03	9.164202e+03	3.924800e-20	-inf	
6.000000e-01	8.000000e-01	2.110717e-03	6.423988e-03	0.000000e+00	-3.224159e-16	2.957835e+05	1.844127e+04	8.534705e-03	3.909557e+04	8.805738e+03	9.164202e+03	1.391341e-17	-inf	
8.000000e-01	8.000000e-01	2.110717e-03	6.423988e-03	0.000000e+00	1.564331e-16	2.957835e+05	1.844127e+04	8.534705e-03	3.909557e+04	8.805738e+03	9.164202e+03	6.750655e-18	-inf	
1.000000e+00	8.000000e-01	2.110717e-03	6.423988e-03	-1.846274e-16	-1.459739e-16	2.957835e+05	1.844127e+04	8.534705e-03	3.909557e+04	8.805738e+03	9.164202e+03	1.015676e-17	-inf	
0.000000e+00	1.000000e+00	2.110717e-03	6.423988e-03	1.818989e-18	-3.151399e-16	2.957835e+05	1.844127e+04	8.534705e-03	3.909557e+04	8.805738e+03	9.164202e+03	1.359966e-17	-inf	
2.000000e-01	1.000000e+00	2.110717e-03	6.423988e-03	0.000000e+00	0.000000e+00	2.957835e+05	1.844127e+04	8.534705e-03	3.909557e+04	8.805738e+03	9.164202e+03	0.000000e+00	-inf	
4.000000e-01	1.000000e+00	2.110717e-03	6.423988e-03	0.000000e+00	0.000000e+00	2.957835e+05	1.844127e+04	8.534705e-03	3.909557e+04	8.805738e+03	9.164202e+03	0.000000e+00	-inf	
6.000000e-01	1.000000e+00	2.110717e-03	6.423988e-03	1.643912e-16	-1.564331e-16	2.957835e+05	1.844127e+04	8.534705e-03	3.909557e+04	8.805738e+03	9.164202e+03	9.792714e-18	-inf	
8.000000e-01	1.000000e+00	2.110717e-03	6.423988e-03	0.000000e+00	5.743459e-16	2.957835e+05	1.844127e+04	8.534705e-03	3.909557e+04	8.805738e+03	9.164202e+03	2.478511e-17	-inf	
1.000000e+00	1.000000e+00	2.110717e-03	6.423988e-03	-3.269633e-16	-3.287823e-16	2.957835e+05	1.844127e+04	8.534705e-03	3.909557e+04	8.805738e+03	9.164202e+03	2.000965e-17	-inf	
1	2	8	7
2	3	9	8
3	4	10	9
4	5	11	10
5	6	12	11
7	8	14	13
8	9	15	14
9	10	16	15
10	11	17	16
11	12	18	17
13	14	20	19
14	15	21	20
15	16	22	21
16	17	23	22
17	18	24	23
19	20	26	25
20	21	27	26
21	22	28	27
22	23	29	28
23	24	30	29
25	26	32	31
26	27	33	32
27	28	34	33
28	29	35	34
29	30	36	35
