TITLE = "Visualization of the volumetric solution"
VARIABLES = "x","y","Density[0]","Density[1]","Momentum_x","Momentum_y","Energy","Electronic_Energy","Total_Density","Pressure","Temperature","Tve","Mach","C<sub>p</sub>"
ZONE STRANDID=8393, SOLUTIONTIME=8.392e-05, NODES= 36, ELEMENTS= 25, DATAPACKING=POINT, ZONETYPE=FEQUADRILATERAL
0.000000e+00	0.000000e+00	1.895450e-03	6.639255e-03	0.000000e+00	0.000000e+00	2.957835e+05	1.473443e+04	8.534705e-03	3.731544e+04	8.285550e+03	8.418968e+03	0.000000e+00	-inf	
2.000000e-01	0.000000e+00	1.895450e-03	6.639255e-03	0.000000e+00	1.366516e-15	2.957835e+05	1.473443e+04	8.534705e-03	3.731544e+04	8.285550e+03	8.418968e+03	6.024679e-17	-inf	
4.000000e-01	0.000000e+00	1.895450e-03	6.639255e-03	0.000000e+00	-1.086846e-15	2.957835e+05	1.473443e+04	8.534705e-03	3.731544e+04	8.285550e+03	8.418968e+03	4.791675e-17	-inf	
6.000000e-01	0.000000e+00	1.895450e-03	6.639255e-03	0.000000e+00	-1.042281e-15	2.957835e+05	1.473443e+04	8.534705e-03	3.731544e+04	8.285550e+03	8.418968e+03	4.595196e-17	-inf	
8.000000e-01	0.000000e+00	1.895450e-03	6.639255e-03	3.399236e-16	0.000000e+00	2.957835e+05	1.473443e+04	8.534705e-03	3.731544e+04	8.285550e+03	8.418968e+03	1.498651e-17	-inf	
1.000000e+00	0.000000e+00	1.895450e-03	6.639255e-03	6.502887e-16	-1.164153e-16	2.957835e+05	1.473443e+04	8.534705e-03	3.731544e+04	8.285550e+03	8.418968e+03	2.912564e-17	-inf	
0.000000e+00	2.000000e-01	1.895450e-03	6.639255e-03	0.000000e+00	0.000000e+00	2.957835e+05	1.473443e+04	8.534705e-03	3.731544e+04	8.285550e+03	8.418968e+03	0.000000e+00	-inf	
2.000000e-01	2.000000e-01	1.895450e-03	6.639255e-03	-6.773462e-16	-1.818989e-18	2.957835e+05	1.473443e+04	8.534705e-03	3.731544e+04	8.285550e+03	8.418968e+03	2.986287e-17	-inf	
4.000000e-01	2.000000e-01	1.895450e-03	6.639255e-03	-6.823484e-16	3.417426e-16	2.957835e+05	1.473443e+04	8.534705e-03	3.731544e+04	8.285550e+03	8.418968e+03	3.364537e-17	-inf	
6.000000e-01	2.000000e-01	1.895450e-03	6.639255e-03	0.000000e+00	8.760708e-16	2.957835e+05	1.473443e+04	8.534705e-03	3.731544e+04	8.285550e+03	8.418968e+03	3.862411e-17	-inf	
8.000000e-01	2.000000e-01	1.895450e-03	6.639255e-03	3.249170e-16	-5.231868e-16	2.957835e+05	1.473443e+04	8.534705e-03	3.731544e+04	8.285550e+03	8.418968e+03	2.715239e-17	-inf	
1.000000e+00	2.000000e-01	1.895450e-03	6.639255e-03	6.402843e-16	-3.230980e-16	2.957835e+05	1.473443e+04	8.534705e-03	3.731544e+04	8.285550e+03	8.418968e+03	3.161923e-17	-inf	
0.000000e+00	4.000000e-01	1.895450e-03	6.639255e-03	-1.258741e-15	0.000000e+00	2.957835e+05	1.473443e+04	8.534705e-03	3.731544e+04	8.285550e+03	8.418968e+03	5.549522e-17	-inf	
2.000000e-01	4.000000e-01	1.895450e-03	6.639255e-03	6.828438e-16	0.000000e+00	2.957835e+05	1.473443e+04	8.534705e-03	3.731544e+04	8.285550e+03	8.418968e+03	3.010514e-17	-inf	
4.000000e-01	4.000000e-01	1.895450e-03	6.639255e-03	2.715248e-16	0.000000e+00	2.957835e+05	1.473443e+04	8.534705e-03	3.731544e+04	8.285550e+03	8.418968e+03	1.197096e-17	-inf	
6.000000e-01	4.000000e-01	1.895450e-03	6.639255e-03	-8.274128e-16	-9.094947e-19	2.957835e+05	1.473443e+04	8.534705e-03	3.731544e+04	8.285550e+03	8.418968e+03	3.647890e-17	-inf	
8.000000e-01	4.000000e-01	1.895450e-03	6.639255e-03	-3.506102e-16	0.000000e+00	2.957835e+05	1.473443e+04	8.534705e-03	3.731544e+04	8.285550e+03	8.418968e+03	1.545766e-17	-inf	
1.000000e+00	4.000000e-01	1.895450e-03	6.639255e-03	0.000000e+00	0.000000e+00	2.957835e+05	1.473443e+04	8.534705e-03	3.731544e+04	8.285550e+03	8.418968e+03	0.000000e+00	-inf	
0.000000e+00	6.000000e-01	1.895450e-03	6.639255e-03	1.086846e-15	3.399236e-16	2.957835e+05	1.473443e+04	8.534705e-03	3.731544e+04	8.285550e+03	8.418968e+03	5.020568e-17	-inf	
2.000000e-01	6.000000e-01	1.895450e-03	6.639255e-03	2.236393e-17	1.818989e-18	2.957835e+05	1.473443e+04	8.534705e-03	3.731544e+04	8.285550e+03	8.418968e+03	9.892346e-19	-inf	
4.000000e-01	6.000000e-01	1.895450e-03	6.639255e-03	0.000000e+00	-3.417426e-16	2.957835e+05	1.473443e+04	8.534705e-03	3.731544e+04	8.285550e+03	8.418968e+03	1.506671e-17	-inf	
6.000000e-01	6.000000e-01	1.895450e-03	6.639255e-03	-2.236393e-17	-3.567493e-16	2.957835e+05	1.473443e+04	8.534705e-03	3.731544e+04	8.285550e+03	8.418968e+03	1.575920e-17	-inf	
8.000000e-01	6.000000e-01	1.895450e-03	6.639255e-03	5.502443e-16	-9.094947e-19	2.957835e+05	1.473443e+04	8.534705e-03	3.731544e+04	8.285550e+03	8.418968e+03	2.425914e-17	-inf	
1.000000e+00	6.000000e-01	1.895450e-03	6.639255e-03	1.258286e-15	-9.094947e-19	2.957835e+05	1.473443e+04	8.534705e-03	3.731544e+04	8.285550e+03	8.418968e+03	5.547518e-17	-inf	
0.000000e+00	8.000000e-01	1.895450e-03	6.639255e-03	-6.029950e-16	0.000000e+00	2.957835e+05	1.473443e+04	8.534705e-03	3.731544e+04	8.285550e+03	8.418968e+03	2.658477e-17	-inf	
2.000000e-01	8.000000e-01	1.895450e-03	6.639255e-03	-3.567493e-16	6.764367e-16	2.957835e+05	1.473443e+04	8.534705e-03	3.731544e+04	8.285550e+03	8.418968e+03	3.371604e-17	-inf	
4.000000e-01	8.000000e-01	1.895450e-03	6.639255e-03	-9.094947e-19	0.000000e+00	2.957835e+05	1.473443e+04	8.534705e-03	3.731544e+04	8.285550e+03	8.418968e+03	4.009770e-20	-inf	
6.000000e-01	8.000000e-01	1.895450e-03	6.639255e-03	0.000000e+00	-6.675691e-16	2.957835e+05	1.473443e+04	8.534705e-03	3.731544e+04	8.285550e+03	8.418968e+03	2.943171e-17	-inf	
8.000000e-01	8.000000e-01	1.895450e-03	6.639255e-03	0.000000e+00	3.351488e-16	2.957835e+05	1.473443e+04	8.534705e-03	3.731544e+04	8.285550e+03	8.418968e+03	1.477600e-17	-inf	
1.000000e+00	8.000000e-01	1.895450e-03	6.639255e-03	-1.040462e-15	-3.271907e-16	2.957835e+05	1.473443e+04	8.534705e-03	3.731544e+04	8.285550e+03	8.418968e+03	4.808642e-17	-inf	
0.000000e+00	1.000000e+00	1.895450e-03	6.639255e-03	1.818989e-18	-6.816663e-16	2.957835e+05	1.473443e+04	8.534705e-03	3.731544e+04	8.285550e+03	8.418968e+03	3.005333e-17	-inf	
2.000000e-01	1.000000e+00	1.895450e-03	6.639255e-03	0.000000e+00	0.000000e+00	2.957835e+05	1.473443e+04	8.534705e-03	3.731544e+04	8.285550e+03	8.418968e+03	0.000000e+00	-inf	
4.000000e-01	1.000000e+00	1.895450e-03	6.639255e-03	0.000000e+00	0.000000e+00	2.957835e+05	1.473443e+04	8.534705e-03	3.731544e+04	8.285550e+03	8.418968e+03	0.000000e+00	-inf	
6.000000e-01	1.000000e+00	1.895450e-03	6.639255e-03	3.528839e-16	-7.903509e-16	2.957835e+05	1.473443e+04	8.534705e-03	3.731544e+04	8.285550e+03	8.418968e+03	3.816039e-17	-inf	
8.000000e-01	1.000000e+00	1.895450e-03	6.639255e-03	0.000000e+00	4.447429e-16	2.957835e+05	1.473443e+04	8.534705e-03	3.731544e+04	8.285550e+03	8.418968e+03	1.960777e-17	-inf	
1.000000e+00	1.000000e+00	1.895450e-03	6.639255e-03	-7.039489e-16	8.594725e-17	2.957835e+05	1.473443e+04	8.534705e-03	3.731544e+04	8.285550e+03	8.418968e+03	3.126608e-17	-inf	
1	2	8	7
2	3	9	8
3	4	10	9
4	5	11	10
5	6	12	11
7	8	14	13
8	9	15	14
9	10	16	15
10	11	17	16
11	12	18	17
13	14	20	19
14	15	21	20
15	16	22	21
16	17	23	22
17	18	24	23
19	20	26	25
20	21	27	26
21	22	28	27
22	23	29	28
23	24	30	29
25	26	32	31
26	27	33	32
27	28	34	33
28	29	35	34
29	30	36	35
