TITLE = "Visualization of the volumetric solution"
VARIABLES = "x","y","Density[0]","Density[1]","Momentum_x","Momentum_y","Energy","Electronic_Energy","Total_Density","Pressure","Temperature","Tve","Mach","C<sub>p</sub>"
ZONE STRANDID=422, SOLUTIONTIME=4.21e-06, NODES= 36, ELEMENTS= 25, DATAPACKING=POINT, ZONETYPE=FEQUADRILATERAL
0.000000e+00	0.000000e+00	2.822973e-03	5.711732e-03	0.000000e+00	0.000000e+00	2.957835e+05	3.735573e+04	8.534705e-03	4.073540e+04	9.633797e+03	1.266825e+04	0.000000e+00	-inf	
2.000000e-01	0.000000e+00	2.822973e-03	5.711732e-03	0.000000e+00	7.867129e-17	2.957835e+05	3.735573e+04	8.534705e-03	4.073540e+04	9.633797e+03	1.266825e+04	3.347274e-18	-inf	
4.000000e-01	0.000000e+00	2.822973e-03	5.711732e-03	0.000000e+00	-6.139089e-17	2.957835e+05	3.735573e+04	8.534705e-03	4.073540e+04	9.633797e+03	1.266825e+04	2.612035e-18	-inf	
6.000000e-01	0.000000e+00	2.822973e-03	5.711732e-03	0.000000e+00	-9.003998e-17	2.957835e+05	3.735573e+04	8.534705e-03	4.073540e+04	9.633797e+03	1.266825e+04	3.830984e-18	-inf	
8.000000e-01	0.000000e+00	2.822973e-03	5.711732e-03	-1.818989e-18	0.000000e+00	2.957835e+05	3.735573e+04	8.534705e-03	4.073540e+04	9.633797e+03	1.266825e+04	7.739362e-20	-inf	
1.000000e+00	0.000000e+00	2.822973e-03	5.711732e-03	-2.728484e-18	-4.547474e-18	2.957835e+05	3.735573e+04	8.534705e-03	4.073540e+04	9.633797e+03	1.266825e+04	2.256392e-19	-inf	
0.000000e+00	2.000000e-01	2.822973e-03	5.711732e-03	0.000000e+00	0.000000e+00	2.957835e+05	3.735573e+04	8.534705e-03	4.073540e+04	9.633797e+03	1.266825e+04	0.000000e+00	-inf	
2.000000e-01	2.000000e-01	2.822973e-03	5.711732e-03	-4.160938e-17	-1.818989e-18	2.957835e+05	3.735573e+04	8.534705e-03	4.073540e+04	9.633797e+03	1.266825e+04	1.772070e-18	-inf	
4.000000e-01	2.000000e-01	2.822973e-03	5.711732e-03	-3.842615e-17	0.000000e+00	2.957835e+05	3.735573e+04	8.534705e-03	4.073540e+04	9.633797e+03	1.266825e+04	1.634940e-18	-inf	
6.000000e-01	2.000000e-01	2.822973e-03	5.711732e-03	0.000000e+00	4.092726e-17	2.957835e+05	3.735573e+04	8.534705e-03	4.073540e+04	9.633797e+03	1.266825e+04	1.741356e-18	-inf	
8.000000e-01	2.000000e-01	2.822973e-03	5.711732e-03	0.000000e+00	-4.274625e-17	2.957835e+05	3.735573e+04	8.534705e-03	4.073540e+04	9.633797e+03	1.266825e+04	1.818750e-18	-inf	
1.000000e+00	2.000000e-01	2.822973e-03	5.711732e-03	1.818989e-18	0.000000e+00	2.957835e+05	3.735573e+04	8.534705e-03	4.073540e+04	9.633797e+03	1.266825e+04	7.739362e-20	-inf	
0.000000e+00	4.000000e-01	2.822973e-03	5.711732e-03	-1.132321e-16	0.000000e+00	2.957835e+05	3.735573e+04	8.534705e-03	4.073540e+04	9.633797e+03	1.266825e+04	4.817753e-18	-inf	
2.000000e-01	4.000000e-01	2.822973e-03	5.711732e-03	5.837355e-17	0.000000e+00	2.957835e+05	3.735573e+04	8.534705e-03	4.073540e+04	9.633797e+03	1.266825e+04	2.483654e-18	-inf	
4.000000e-01	4.000000e-01	2.822973e-03	5.711732e-03	-1.393128e-17	0.000000e+00	2.957835e+05	3.735573e+04	8.534705e-03	4.073540e+04	9.633797e+03	1.266825e+04	5.927424e-19	-inf	
6.000000e-01	4.000000e-01	2.822973e-03	5.711732e-03	-4.229150e-17	-9.094947e-19	2.957835e+05	3.735573e+04	8.534705e-03	4.073540e+04	9.633797e+03	1.266825e+04	1.799818e-18	-inf	
8.000000e-01	4.000000e-01	2.822973e-03	5.711732e-03	2.273737e-18	0.000000e+00	2.957835e+05	3.735573e+04	8.534705e-03	4.073540e+04	9.633797e+03	1.266825e+04	9.674202e-20	-inf	
1.000000e+00	4.000000e-01	2.822973e-03	5.711732e-03	0.000000e+00	0.000000e+00	2.957835e+05	3.735573e+04	8.534705e-03	4.073540e+04	9.633797e+03	1.266825e+04	0.000000e+00	-inf	
0.000000e+00	6.000000e-01	2.822973e-03	5.711732e-03	6.139089e-17	-1.818989e-18	2.957835e+05	3.735573e+04	8.534705e-03	4.073540e+04	9.633797e+03	1.266825e+04	2.613181e-18	-inf	
2.000000e-01	6.000000e-01	2.822973e-03	5.711732e-03	3.969755e-18	1.818989e-18	2.957835e+05	3.735573e+04	8.534705e-03	4.073540e+04	9.633797e+03	1.266825e+04	1.857907e-19	-inf	
4.000000e-01	6.000000e-01	2.822973e-03	5.711732e-03	0.000000e+00	0.000000e+00	2.957835e+05	3.735573e+04	8.534705e-03	4.073540e+04	9.633797e+03	1.266825e+04	0.000000e+00	-inf	
6.000000e-01	6.000000e-01	2.822973e-03	5.711732e-03	-3.969755e-18	2.273737e-18	2.957835e+05	3.735573e+04	8.534705e-03	4.073540e+04	9.633797e+03	1.266825e+04	1.946469e-19	-inf	
8.000000e-01	6.000000e-01	2.822973e-03	5.711732e-03	-1.364242e-18	-9.094947e-19	2.957835e+05	3.735573e+04	8.534705e-03	4.073540e+04	9.633797e+03	1.266825e+04	6.976167e-20	-inf	
1.000000e+00	6.000000e-01	2.822973e-03	5.711732e-03	8.549250e-17	-9.094947e-19	2.957835e+05	3.735573e+04	8.534705e-03	4.073540e+04	9.633797e+03	1.266825e+04	3.637706e-18	-inf	
0.000000e+00	8.000000e-01	2.822973e-03	5.711732e-03	2.728484e-18	0.000000e+00	2.957835e+05	3.735573e+04	8.534705e-03	4.073540e+04	9.633797e+03	1.266825e+04	1.160904e-19	-inf	
2.000000e-01	8.000000e-01	2.822973e-03	5.711732e-03	2.273737e-18	4.069989e-17	2.957835e+05	3.735573e+04	8.534705e-03	4.073540e+04	9.633797e+03	1.266825e+04	1.734382e-18	-inf	
4.000000e-01	8.000000e-01	2.822973e-03	5.711732e-03	-9.094947e-19	0.000000e+00	2.957835e+05	3.735573e+04	8.534705e-03	4.073540e+04	9.633797e+03	1.266825e+04	3.869681e-20	-inf	
6.000000e-01	8.000000e-01	2.822973e-03	5.711732e-03	0.000000e+00	-3.024070e-17	2.957835e+05	3.735573e+04	8.534705e-03	4.073540e+04	9.633797e+03	1.266825e+04	1.286669e-18	-inf	
8.000000e-01	8.000000e-01	2.822973e-03	5.711732e-03	0.000000e+00	0.000000e+00	2.957835e+05	3.735573e+04	8.534705e-03	4.073540e+04	9.633797e+03	1.266825e+04	0.000000e+00	-inf	
1.000000e+00	8.000000e-01	2.822973e-03	5.711732e-03	-8.822099e-17	-9.094947e-19	2.957835e+05	3.735573e+04	8.534705e-03	4.073540e+04	9.633797e+03	1.266825e+04	3.753790e-18	-inf	
0.000000e+00	1.000000e+00	2.822973e-03	5.711732e-03	1.818989e-18	1.818989e-18	2.957835e+05	3.735573e+04	8.534705e-03	4.073540e+04	9.633797e+03	1.266825e+04	1.094511e-19	-inf	
2.000000e-01	1.000000e+00	2.822973e-03	5.711732e-03	0.000000e+00	0.000000e+00	2.957835e+05	3.735573e+04	8.534705e-03	4.073540e+04	9.633797e+03	1.266825e+04	0.000000e+00	-inf	
4.000000e-01	1.000000e+00	2.822973e-03	5.711732e-03	0.000000e+00	0.000000e+00	2.957835e+05	3.735573e+04	8.534705e-03	4.073540e+04	9.633797e+03	1.266825e+04	0.000000e+00	-inf	
6.000000e-01	1.000000e+00	2.822973e-03	5.711732e-03	0.000000e+00	-8.731149e-17	2.957835e+05	3.735573e+04	8.534705e-03	4.073540e+04	9.633797e+03	1.266825e+04	3.714894e-18	-inf	
8.000000e-01	1.000000e+00	2.822973e-03	5.711732e-03	0.000000e+00	-3.819878e-17	2.957835e+05	3.735573e+04	8.534705e-03	4.073540e+04	9.633797e+03	1.266825e+04	1.625266e-18	-inf	
1.000000e+00	1.000000e+00	2.822973e-03	5.711732e-03	1.818989e-18	1.909939e-17	2.957835e+05	3.735573e+04	8.534705e-03	4.073540e+04	9.633797e+03	1.266825e+04	8.163101e-19	-inf	
1	2	8	7
2	3	9	8
3	4	10	9
4	5	11	10
5	6	12	11
7	8	14	13
8	9	15	14
9	10	16	15
10	11	17	16
11	12	18	17
13	14	20	19
14	15	21	20
15	16	22	21
16	17	23	22
17	18	24	23
19	20	26	25
20	21	27	26
21	22	28	27
22	23	29	28
23	24	30	29
25	26	32	31
26	27	33	32
27	28	34	33
28	29	35	34
29	30	36	35
