TITLE = "Visualization of the volumetric solution"
VARIABLES = "x","y","Density[0]","Density[1]","Momentum_x","Momentum_y","Energy","Electronic_Energy","Total_Density","Pressure","Temperature","Tve","Mach","C<sub>p</sub>"
ZONE STRANDID=4761, SOLUTIONTIME=4.76e-05, NODES= 36, ELEMENTS= 25, DATAPACKING=POINT, ZONETYPE=FEQUADRILATERAL
0.000000e+00	0.000000e+00	2.027946e-03	6.506759e-03	0.000000e+00	0.000000e+00	2.957835e+05	1.690085e+04	8.534705e-03	3.848699e+04	8.620959e+03	8.857973e+03	0.000000e+00	-inf	
2.000000e-01	0.000000e+00	2.027946e-03	6.506759e-03	0.000000e+00	9.863470e-16	2.957835e+05	1.690085e+04	8.534705e-03	3.848699e+04	8.620959e+03	8.857973e+03	4.286850e-17	-inf	
4.000000e-01	0.000000e+00	2.027946e-03	6.506759e-03	0.000000e+00	-7.648850e-16	2.957835e+05	1.690085e+04	8.534705e-03	3.848699e+04	8.620959e+03	8.857973e+03	3.324335e-17	-inf	
6.000000e-01	0.000000e+00	2.027946e-03	6.506759e-03	0.000000e+00	-4.029062e-16	2.957835e+05	1.690085e+04	8.534705e-03	3.848699e+04	8.620959e+03	8.857973e+03	1.751106e-17	-inf	
8.000000e-01	0.000000e+00	2.027946e-03	6.506759e-03	1.350600e-16	0.000000e+00	2.957835e+05	1.690085e+04	8.534705e-03	3.848699e+04	8.620959e+03	8.857973e+03	5.869961e-18	-inf	
1.000000e+00	0.000000e+00	2.027946e-03	6.506759e-03	2.023626e-16	2.255547e-16	2.957835e+05	1.690085e+04	8.534705e-03	3.848699e+04	8.620959e+03	8.857973e+03	1.317014e-17	-inf	
0.000000e+00	2.000000e-01	2.027946e-03	6.506759e-03	0.000000e+00	0.000000e+00	2.957835e+05	1.690085e+04	8.534705e-03	3.848699e+04	8.620959e+03	8.857973e+03	0.000000e+00	-inf	
2.000000e-01	2.000000e-01	2.027946e-03	6.506759e-03	-3.863079e-16	-1.818989e-18	2.957835e+05	1.690085e+04	8.534705e-03	3.848699e+04	8.620959e+03	8.857973e+03	1.678986e-17	-inf	
4.000000e-01	2.000000e-01	2.027946e-03	6.506759e-03	-4.922640e-16	1.368790e-16	2.957835e+05	1.690085e+04	8.534705e-03	3.848699e+04	8.620959e+03	8.857973e+03	2.220642e-17	-inf	
6.000000e-01	2.000000e-01	2.027946e-03	6.506759e-03	0.000000e+00	3.376499e-16	2.957835e+05	1.690085e+04	8.534705e-03	3.848699e+04	8.620959e+03	8.857973e+03	1.467490e-17	-inf	
8.000000e-01	2.000000e-01	2.027946e-03	6.506759e-03	1.202807e-16	-2.555680e-16	2.957835e+05	1.690085e+04	8.534705e-03	3.848699e+04	8.620959e+03	8.857973e+03	1.227615e-17	-inf	
1.000000e+00	2.000000e-01	2.027946e-03	6.506759e-03	2.146407e-16	-1.025455e-16	2.957835e+05	1.690085e+04	8.534705e-03	3.848699e+04	8.620959e+03	8.857973e+03	1.033865e-17	-inf	
0.000000e+00	4.000000e-01	2.027946e-03	6.506759e-03	-1.070021e-15	0.000000e+00	2.957835e+05	1.690085e+04	8.534705e-03	3.848699e+04	8.620959e+03	8.857973e+03	4.650511e-17	-inf	
2.000000e-01	4.000000e-01	2.027946e-03	6.506759e-03	3.619747e-16	0.000000e+00	2.957835e+05	1.690085e+04	8.534705e-03	3.848699e+04	8.620959e+03	8.857973e+03	1.573210e-17	-inf	
4.000000e-01	4.000000e-01	2.027946e-03	6.506759e-03	9.594746e-17	0.000000e+00	2.957835e+05	1.690085e+04	8.534705e-03	3.848699e+04	8.620959e+03	8.857973e+03	4.170058e-18	-inf	
6.000000e-01	4.000000e-01	2.027946e-03	6.506759e-03	-2.826255e-16	-9.094947e-19	2.957835e+05	1.690085e+04	8.534705e-03	3.848699e+04	8.620959e+03	8.857973e+03	1.228350e-17	-inf	
8.000000e-01	4.000000e-01	2.027946e-03	6.506759e-03	-1.418812e-16	0.000000e+00	2.957835e+05	1.690085e+04	8.534705e-03	3.848699e+04	8.620959e+03	8.857973e+03	6.166424e-18	-inf	
1.000000e+00	4.000000e-01	2.027946e-03	6.506759e-03	0.000000e+00	0.000000e+00	2.957835e+05	1.690085e+04	8.534705e-03	3.848699e+04	8.620959e+03	8.857973e+03	0.000000e+00	-inf	
0.000000e+00	6.000000e-01	2.027946e-03	6.506759e-03	7.648850e-16	1.350600e-16	2.957835e+05	1.690085e+04	8.534705e-03	3.848699e+04	8.620959e+03	8.857973e+03	3.375762e-17	-inf	
2.000000e-01	6.000000e-01	2.027946e-03	6.506759e-03	-2.342795e-17	1.818989e-18	2.957835e+05	1.690085e+04	8.534705e-03	3.848699e+04	8.620959e+03	8.857973e+03	1.021287e-18	-inf	
4.000000e-01	6.000000e-01	2.027946e-03	6.506759e-03	0.000000e+00	-1.368790e-16	2.957835e+05	1.690085e+04	8.534705e-03	3.848699e+04	8.620959e+03	8.857973e+03	5.949018e-18	-inf	
6.000000e-01	6.000000e-01	2.027946e-03	6.506759e-03	2.342795e-17	-1.380158e-16	2.957835e+05	1.690085e+04	8.534705e-03	3.848699e+04	8.620959e+03	8.857973e+03	6.084235e-18	-inf	
8.000000e-01	6.000000e-01	2.027946e-03	6.506759e-03	1.427907e-16	-9.094947e-19	2.957835e+05	1.690085e+04	8.534705e-03	3.848699e+04	8.620959e+03	8.857973e+03	6.206078e-18	-inf	
1.000000e+00	6.000000e-01	2.027946e-03	6.506759e-03	5.661605e-16	-9.094947e-19	2.957835e+05	1.690085e+04	8.534705e-03	3.848699e+04	8.620959e+03	8.857973e+03	2.460643e-17	-inf	
0.000000e+00	8.000000e-01	2.027946e-03	6.506759e-03	-1.728040e-16	0.000000e+00	2.957835e+05	1.690085e+04	8.534705e-03	3.848699e+04	8.620959e+03	8.857973e+03	7.510388e-18	-inf	
2.000000e-01	8.000000e-01	2.027946e-03	6.506759e-03	-1.380158e-16	3.853984e-16	2.957835e+05	1.690085e+04	8.534705e-03	3.848699e+04	8.620959e+03	8.857973e+03	1.779181e-17	-inf	
4.000000e-01	8.000000e-01	2.027946e-03	6.506759e-03	-9.094947e-19	0.000000e+00	2.957835e+05	1.690085e+04	8.534705e-03	3.848699e+04	8.620959e+03	8.857973e+03	3.952836e-20	-inf	
6.000000e-01	8.000000e-01	2.027946e-03	6.506759e-03	0.000000e+00	-4.476988e-16	2.957835e+05	1.690085e+04	8.534705e-03	3.848699e+04	8.620959e+03	8.857973e+03	1.945783e-17	-inf	
8.000000e-01	8.000000e-01	2.027946e-03	6.506759e-03	0.000000e+00	1.348326e-16	2.957835e+05	1.690085e+04	8.534705e-03	3.848699e+04	8.620959e+03	8.857973e+03	5.860079e-18	-inf	
1.000000e+00	8.000000e-01	2.027946e-03	6.506759e-03	-4.010872e-16	-1.207354e-16	2.957835e+05	1.690085e+04	8.534705e-03	3.848699e+04	8.620959e+03	8.857973e+03	1.820467e-17	-inf	
0.000000e+00	1.000000e+00	2.027946e-03	6.506759e-03	1.818989e-18	-2.719389e-16	2.957835e+05	1.690085e+04	8.534705e-03	3.848699e+04	8.620959e+03	8.857973e+03	1.181924e-17	-inf	
2.000000e-01	1.000000e+00	2.027946e-03	6.506759e-03	0.000000e+00	0.000000e+00	2.957835e+05	1.690085e+04	8.534705e-03	3.848699e+04	8.620959e+03	8.857973e+03	0.000000e+00	-inf	
4.000000e-01	1.000000e+00	2.027946e-03	6.506759e-03	0.000000e+00	0.000000e+00	2.957835e+05	1.690085e+04	8.534705e-03	3.848699e+04	8.620959e+03	8.857973e+03	0.000000e+00	-inf	
6.000000e-01	1.000000e+00	2.027946e-03	6.506759e-03	1.441549e-16	-2.687557e-16	2.957835e+05	1.690085e+04	8.534705e-03	3.848699e+04	8.620959e+03	8.857973e+03	1.325483e-17	-inf	
8.000000e-01	1.000000e+00	2.027946e-03	6.506759e-03	0.000000e+00	4.547474e-16	2.957835e+05	1.690085e+04	8.534705e-03	3.848699e+04	8.620959e+03	8.857973e+03	1.976418e-17	-inf	
1.000000e+00	1.000000e+00	2.027946e-03	6.506759e-03	-2.864908e-16	-2.351044e-16	2.957835e+05	1.690085e+04	8.534705e-03	3.848699e+04	8.620959e+03	8.857973e+03	1.610737e-17	-inf	
1	2	8	7
2	3	9	8
3	4	10	9
4	5	11	10
5	6	12	11
7	8	14	13
8	9	15	14
9	10	16	15
10	11	17	16
11	12	18	17
13	14	20	19
14	15	21	20
15	16	22	21
16	17	23	22
17	18	24	23
19	20	26	25
20	21	27	26
21	22	28	27
22	23	29	28
23	24	30	29
25	26	32	31
26	27	33	32
27	28	34	33
28	29	35	34
29	30	36	35
