TITLE = "Visualization of the volumetric solution"
VARIABLES = "x","y","Density[0]","Density[1]","Momentum_x","Momentum_y","Energy","Electronic_Energy","Total_Density","Pressure","Temperature","Tve","Mach","C<sub>p</sub>"
ZONE STRANDID=8068, SOLUTIONTIME=8.067e-05, NODES= 36, ELEMENTS= 25, DATAPACKING=POINT, ZONETYPE=FEQUADRILATERAL
0.000000e+00	0.000000e+00	1.904279e-03	6.630426e-03	0.000000e+00	0.000000e+00	2.957835e+05	1.487198e+04	8.534705e-03	3.739827e+04	8.308777e+03	8.447351e+03	0.000000e+00	-inf	
2.000000e-01	0.000000e+00	1.904279e-03	6.630426e-03	0.000000e+00	1.337412e-15	2.957835e+05	1.487198e+04	8.534705e-03	3.739827e+04	8.308777e+03	8.447351e+03	5.890285e-17	-inf	
4.000000e-01	0.000000e+00	1.904279e-03	6.630426e-03	0.000000e+00	-1.060471e-15	2.957835e+05	1.487198e+04	8.534705e-03	3.739827e+04	8.308777e+03	8.447351e+03	4.670570e-17	-inf	
6.000000e-01	0.000000e+00	1.904279e-03	6.630426e-03	0.000000e+00	-9.849828e-16	2.957835e+05	1.487198e+04	8.534705e-03	3.739827e+04	8.308777e+03	8.447351e+03	4.338102e-17	-inf	
8.000000e-01	0.000000e+00	1.904279e-03	6.630426e-03	3.133209e-16	0.000000e+00	2.957835e+05	1.487198e+04	8.534705e-03	3.739827e+04	8.308777e+03	8.447351e+03	1.379941e-17	-inf	
1.000000e+00	0.000000e+00	1.904279e-03	6.630426e-03	5.861693e-16	-1.109584e-16	2.957835e+05	1.487198e+04	8.534705e-03	3.739827e+04	8.308777e+03	8.447351e+03	2.627477e-17	-inf	
0.000000e+00	2.000000e-01	1.904279e-03	6.630426e-03	0.000000e+00	0.000000e+00	2.957835e+05	1.487198e+04	8.534705e-03	3.739827e+04	8.308777e+03	8.447351e+03	0.000000e+00	-inf	
2.000000e-01	2.000000e-01	1.904279e-03	6.630426e-03	-6.496066e-16	-1.818989e-18	2.957835e+05	1.487198e+04	8.534705e-03	3.739827e+04	8.308777e+03	8.447351e+03	2.861036e-17	-inf	
4.000000e-01	2.000000e-01	1.904279e-03	6.630426e-03	-6.677965e-16	3.151399e-16	2.957835e+05	1.487198e+04	8.534705e-03	3.739827e+04	8.308777e+03	8.447351e+03	3.252184e-17	-inf	
6.000000e-01	2.000000e-01	1.904279e-03	6.630426e-03	0.000000e+00	8.164989e-16	2.957835e+05	1.487198e+04	8.534705e-03	3.739827e+04	8.308777e+03	8.447351e+03	3.596058e-17	-inf	
8.000000e-01	2.000000e-01	1.904279e-03	6.630426e-03	2.974048e-16	-4.954472e-16	2.957835e+05	1.487198e+04	8.534705e-03	3.739827e+04	8.308777e+03	8.447351e+03	2.545017e-17	-inf	
1.000000e+00	2.000000e-01	1.904279e-03	6.630426e-03	5.798029e-16	-2.924025e-16	2.957835e+05	1.487198e+04	8.534705e-03	3.739827e+04	8.308777e+03	8.447351e+03	2.859946e-17	-inf	
0.000000e+00	4.000000e-01	1.904279e-03	6.630426e-03	-1.260105e-15	0.000000e+00	2.957835e+05	1.487198e+04	8.534705e-03	3.739827e+04	8.308777e+03	8.447351e+03	5.549807e-17	-inf	
2.000000e-01	4.000000e-01	1.904279e-03	6.630426e-03	6.469241e-16	0.000000e+00	2.957835e+05	1.487198e+04	8.534705e-03	3.739827e+04	8.308777e+03	8.447351e+03	2.849210e-17	-inf	
4.000000e-01	4.000000e-01	1.904279e-03	6.630426e-03	2.503845e-16	0.000000e+00	2.957835e+05	1.487198e+04	8.534705e-03	3.739827e+04	8.308777e+03	8.447351e+03	1.102754e-17	-inf	
6.000000e-01	4.000000e-01	1.904279e-03	6.630426e-03	-7.705694e-16	-9.094947e-19	2.957835e+05	1.487198e+04	8.534705e-03	3.739827e+04	8.308777e+03	8.447351e+03	3.393776e-17	-inf	
8.000000e-01	4.000000e-01	1.904279e-03	6.630426e-03	-3.215064e-16	0.000000e+00	2.957835e+05	1.487198e+04	8.534705e-03	3.739827e+04	8.308777e+03	8.447351e+03	1.415992e-17	-inf	
1.000000e+00	4.000000e-01	1.904279e-03	6.630426e-03	0.000000e+00	0.000000e+00	2.957835e+05	1.487198e+04	8.534705e-03	3.739827e+04	8.308777e+03	8.447351e+03	0.000000e+00	-inf	
0.000000e+00	6.000000e-01	1.904279e-03	6.630426e-03	1.060471e-15	3.133209e-16	2.957835e+05	1.487198e+04	8.534705e-03	3.739827e+04	8.308777e+03	8.447351e+03	4.870160e-17	-inf	
2.000000e-01	6.000000e-01	1.904279e-03	6.630426e-03	1.759984e-17	1.818989e-18	2.957835e+05	1.487198e+04	8.534705e-03	3.739827e+04	8.308777e+03	8.447351e+03	7.792685e-19	-inf	
4.000000e-01	6.000000e-01	1.904279e-03	6.630426e-03	0.000000e+00	-3.151399e-16	2.957835e+05	1.487198e+04	8.534705e-03	3.739827e+04	8.308777e+03	8.447351e+03	1.387952e-17	-inf	
6.000000e-01	6.000000e-01	1.904279e-03	6.630426e-03	-1.759984e-17	-3.258265e-16	2.957835e+05	1.487198e+04	8.534705e-03	3.739827e+04	8.308777e+03	8.447351e+03	1.437111e-17	-inf	
8.000000e-01	6.000000e-01	1.904279e-03	6.630426e-03	4.638423e-16	-9.094947e-19	2.957835e+05	1.487198e+04	8.534705e-03	3.739827e+04	8.308777e+03	8.447351e+03	2.042877e-17	-inf	
1.000000e+00	6.000000e-01	1.904279e-03	6.630426e-03	1.259195e-15	-9.094947e-19	2.957835e+05	1.487198e+04	8.534705e-03	3.739827e+04	8.308777e+03	8.447351e+03	5.545802e-17	-inf	
0.000000e+00	8.000000e-01	1.904279e-03	6.630426e-03	-5.502443e-16	0.000000e+00	2.957835e+05	1.487198e+04	8.534705e-03	3.739827e+04	8.308777e+03	8.447351e+03	2.423409e-17	-inf	
2.000000e-01	8.000000e-01	1.904279e-03	6.630426e-03	-3.258265e-16	6.486971e-16	2.957835e+05	1.487198e+04	8.534705e-03	3.739827e+04	8.308777e+03	8.447351e+03	3.197160e-17	-inf	
4.000000e-01	8.000000e-01	1.904279e-03	6.630426e-03	-9.094947e-19	0.000000e+00	2.957835e+05	1.487198e+04	8.534705e-03	3.739827e+04	8.308777e+03	8.447351e+03	4.005634e-20	-inf	
6.000000e-01	8.000000e-01	1.904279e-03	6.630426e-03	0.000000e+00	-6.534719e-16	2.957835e+05	1.487198e+04	8.534705e-03	3.739827e+04	8.308777e+03	8.447351e+03	2.878048e-17	-inf	
8.000000e-01	8.000000e-01	1.904279e-03	6.630426e-03	0.000000e+00	3.076366e-16	2.957835e+05	1.487198e+04	8.534705e-03	3.739827e+04	8.308777e+03	8.447351e+03	1.354906e-17	-inf	
1.000000e+00	8.000000e-01	1.904279e-03	6.630426e-03	-9.831638e-16	-3.001333e-16	2.957835e+05	1.487198e+04	8.534705e-03	3.739827e+04	8.308777e+03	8.447351e+03	4.527361e-17	-inf	
0.000000e+00	1.000000e+00	1.904279e-03	6.630426e-03	1.818989e-18	-6.284608e-16	2.957835e+05	1.487198e+04	8.534705e-03	3.739827e+04	8.308777e+03	8.447351e+03	2.767905e-17	-inf	
2.000000e-01	1.000000e+00	1.904279e-03	6.630426e-03	0.000000e+00	0.000000e+00	2.957835e+05	1.487198e+04	8.534705e-03	3.739827e+04	8.308777e+03	8.447351e+03	0.000000e+00	-inf	
4.000000e-01	1.000000e+00	1.904279e-03	6.630426e-03	0.000000e+00	0.000000e+00	2.957835e+05	1.487198e+04	8.534705e-03	3.739827e+04	8.308777e+03	8.447351e+03	0.000000e+00	-inf	
6.000000e-01	1.000000e+00	1.904279e-03	6.630426e-03	3.237801e-16	-7.348717e-16	2.957835e+05	1.487198e+04	8.534705e-03	3.739827e+04	8.308777e+03	8.447351e+03	3.536773e-17	-inf	
8.000000e-01	1.000000e+00	1.904279e-03	6.630426e-03	0.000000e+00	4.201866e-16	2.957835e+05	1.487198e+04	8.534705e-03	3.739827e+04	8.308777e+03	8.447351e+03	1.850603e-17	-inf	
1.000000e+00	1.000000e+00	1.904279e-03	6.630426e-03	-6.457412e-16	8.094503e-17	2.957835e+05	1.487198e+04	8.534705e-03	3.739827e+04	8.308777e+03	8.447351e+03	2.866257e-17	-inf	
1	2	8	7
2	3	9	8
3	4	10	9
4	5	11	10
5	6	12	11
7	8	14	13
8	9	15	14
9	10	16	15
10	11	17	16
11	12	18	17
13	14	20	19
14	15	21	20
15	16	22	21
16	17	23	22
17	18	24	23
19	20	26	25
20	21	27	26
21	22	28	27
22	23	29	28
23	24	30	29
25	26	32	31
26	27	33	32
27	28	34	33
28	29	35	34
29	30	36	35
