TITLE = "Visualization of the volumetric solution"
VARIABLES = "x","y","Density[0]","Density[1]","Momentum_x","Momentum_y","Energy","Electronic_Energy","Total_Density","Pressure","Temperature","Tve","Mach","C<sub>p</sub>"
ZONE STRANDID=6070, SOLUTIONTIME=6.069e-05, NODES= 36, ELEMENTS= 25, DATAPACKING=POINT, ZONETYPE=FEQUADRILATERAL
0.000000e+00	0.000000e+00	1.969627e-03	6.565078e-03	0.000000e+00	0.000000e+00	2.957835e+05	1.591634e+04	8.534705e-03	3.799257e+04	8.477342e+03	8.659772e+03	0.000000e+00	-inf	
2.000000e-01	0.000000e+00	1.969627e-03	6.565078e-03	0.000000e+00	1.161879e-15	2.957835e+05	1.591634e+04	8.534705e-03	3.799257e+04	8.477342e+03	8.659772e+03	5.079908e-17	-inf	
4.000000e-01	0.000000e+00	1.969627e-03	6.565078e-03	0.000000e+00	-8.740244e-16	2.957835e+05	1.591634e+04	8.534705e-03	3.799257e+04	8.477342e+03	8.659772e+03	3.821364e-17	-inf	
6.000000e-01	0.000000e+00	1.969627e-03	6.565078e-03	0.000000e+00	-6.357368e-16	2.957835e+05	1.591634e+04	8.534705e-03	3.799257e+04	8.477342e+03	8.659772e+03	2.779535e-17	-inf	
8.000000e-01	0.000000e+00	1.969627e-03	6.565078e-03	1.350600e-16	0.000000e+00	2.957835e+05	1.591634e+04	8.534705e-03	3.799257e+04	8.477342e+03	8.659772e+03	5.905021e-18	-inf	
1.000000e+00	0.000000e+00	1.969627e-03	6.565078e-03	2.060005e-16	7.457857e-17	2.957835e+05	1.591634e+04	8.534705e-03	3.799257e+04	8.477342e+03	8.659772e+03	9.578714e-18	-inf	
0.000000e+00	2.000000e-01	1.969627e-03	6.565078e-03	0.000000e+00	0.000000e+00	2.957835e+05	1.591634e+04	8.534705e-03	3.799257e+04	8.477342e+03	8.659772e+03	0.000000e+00	-inf	
2.000000e-01	2.000000e-01	1.969627e-03	6.565078e-03	-4.702088e-16	-1.818989e-18	2.957835e+05	1.591634e+04	8.534705e-03	3.799257e+04	8.477342e+03	8.659772e+03	2.055837e-17	-inf	
4.000000e-01	2.000000e-01	1.969627e-03	6.565078e-03	-5.800302e-16	1.368790e-16	2.957835e+05	1.591634e+04	8.534705e-03	3.799257e+04	8.477342e+03	8.659772e+03	2.605635e-17	-inf	
6.000000e-01	2.000000e-01	1.969627e-03	6.565078e-03	0.000000e+00	4.554295e-16	2.957835e+05	1.591634e+04	8.534705e-03	3.799257e+04	8.477342e+03	8.659772e+03	1.991205e-17	-inf	
8.000000e-01	2.000000e-01	1.969627e-03	6.565078e-03	1.234639e-16	-3.144578e-16	2.957835e+05	1.591634e+04	8.534705e-03	3.799257e+04	8.477342e+03	8.659772e+03	1.477029e-17	-inf	
1.000000e+00	2.000000e-01	1.969627e-03	6.565078e-03	2.110028e-16	-1.023182e-16	2.957835e+05	1.591634e+04	8.534705e-03	3.799257e+04	8.477342e+03	8.659772e+03	1.025277e-17	-inf	
0.000000e+00	4.000000e-01	1.969627e-03	6.565078e-03	-1.270109e-15	0.000000e+00	2.957835e+05	1.591634e+04	8.534705e-03	3.799257e+04	8.477342e+03	8.659772e+03	5.553105e-17	-inf	
2.000000e-01	4.000000e-01	1.969627e-03	6.565078e-03	4.216553e-16	0.000000e+00	2.957835e+05	1.591634e+04	8.534705e-03	3.799257e+04	8.477342e+03	8.659772e+03	1.843539e-17	-inf	
4.000000e-01	4.000000e-01	1.969627e-03	6.565078e-03	1.219768e-16	0.000000e+00	2.957835e+05	1.591634e+04	8.534705e-03	3.799257e+04	8.477342e+03	8.659772e+03	5.333005e-18	-inf	
6.000000e-01	4.000000e-01	1.969627e-03	6.565078e-03	-4.079084e-16	-9.094947e-19	2.957835e+05	1.591634e+04	8.534705e-03	3.799257e+04	8.477342e+03	8.659772e+03	1.783440e-17	-inf	
8.000000e-01	4.000000e-01	1.969627e-03	6.565078e-03	-1.462013e-16	0.000000e+00	2.957835e+05	1.591634e+04	8.534705e-03	3.799257e+04	8.477342e+03	8.659772e+03	6.392135e-18	-inf	
1.000000e+00	4.000000e-01	1.969627e-03	6.565078e-03	0.000000e+00	0.000000e+00	2.957835e+05	1.591634e+04	8.534705e-03	3.799257e+04	8.477342e+03	8.659772e+03	0.000000e+00	-inf	
0.000000e+00	6.000000e-01	1.969627e-03	6.565078e-03	8.740244e-16	1.350600e-16	2.957835e+05	1.591634e+04	8.534705e-03	3.799257e+04	8.477342e+03	8.659772e+03	3.866719e-17	-inf	
2.000000e-01	6.000000e-01	1.969627e-03	6.565078e-03	1.680729e-17	1.818989e-18	2.957835e+05	1.591634e+04	8.534705e-03	3.799257e+04	8.477342e+03	8.659772e+03	7.391307e-19	-inf	
4.000000e-01	6.000000e-01	1.969627e-03	6.565078e-03	0.000000e+00	-1.368790e-16	2.957835e+05	1.591634e+04	8.534705e-03	3.799257e+04	8.477342e+03	8.659772e+03	5.984550e-18	-inf	
6.000000e-01	6.000000e-01	1.969627e-03	6.565078e-03	-1.680729e-17	-1.393801e-16	2.957835e+05	1.591634e+04	8.534705e-03	3.799257e+04	8.477342e+03	8.659772e+03	6.138048e-18	-inf	
8.000000e-01	6.000000e-01	1.969627e-03	6.565078e-03	1.471108e-16	-9.094947e-19	2.957835e+05	1.591634e+04	8.534705e-03	3.799257e+04	8.477342e+03	8.659772e+03	6.432023e-18	-inf	
1.000000e+00	6.000000e-01	1.969627e-03	6.565078e-03	8.167262e-16	-9.094947e-19	2.957835e+05	1.591634e+04	8.534705e-03	3.799257e+04	8.477342e+03	8.659772e+03	3.570850e-17	-inf	
0.000000e+00	8.000000e-01	1.969627e-03	6.565078e-03	-1.964509e-16	0.000000e+00	2.957835e+05	1.591634e+04	8.534705e-03	3.799257e+04	8.477342e+03	8.659772e+03	8.589121e-18	-inf	
2.000000e-01	8.000000e-01	1.969627e-03	6.565078e-03	-1.393801e-16	4.692993e-16	2.957835e+05	1.591634e+04	8.534705e-03	3.799257e+04	8.477342e+03	8.659772e+03	2.140427e-17	-inf	
4.000000e-01	8.000000e-01	1.969627e-03	6.565078e-03	-9.094947e-19	0.000000e+00	2.957835e+05	1.591634e+04	8.534705e-03	3.799257e+04	8.477342e+03	8.659772e+03	3.976445e-20	-inf	
6.000000e-01	8.000000e-01	1.969627e-03	6.565078e-03	0.000000e+00	-5.641141e-16	2.957835e+05	1.591634e+04	8.534705e-03	3.799257e+04	8.477342e+03	8.659772e+03	2.466390e-17	-inf	
8.000000e-01	8.000000e-01	1.969627e-03	6.565078e-03	0.000000e+00	1.336957e-16	2.957835e+05	1.591634e+04	8.534705e-03	3.799257e+04	8.477342e+03	8.659772e+03	5.845374e-18	-inf	
1.000000e+00	8.000000e-01	1.969627e-03	6.565078e-03	-6.339178e-16	-1.218723e-16	2.957835e+05	1.591634e+04	8.534705e-03	3.799257e+04	8.477342e+03	8.659772e+03	2.822338e-17	-inf	
0.000000e+00	1.000000e+00	1.969627e-03	6.565078e-03	1.818989e-18	-2.719389e-16	2.957835e+05	1.591634e+04	8.534705e-03	3.799257e+04	8.477342e+03	8.659772e+03	1.188984e-17	-inf	
2.000000e-01	1.000000e+00	1.969627e-03	6.565078e-03	0.000000e+00	0.000000e+00	2.957835e+05	1.591634e+04	8.534705e-03	3.799257e+04	8.477342e+03	8.659772e+03	0.000000e+00	-inf	
4.000000e-01	1.000000e+00	1.969627e-03	6.565078e-03	0.000000e+00	0.000000e+00	2.957835e+05	1.591634e+04	8.534705e-03	3.799257e+04	8.477342e+03	8.659772e+03	0.000000e+00	-inf	
6.000000e-01	1.000000e+00	1.969627e-03	6.565078e-03	1.484750e-16	-3.778950e-16	2.957835e+05	1.591634e+04	8.534705e-03	3.799257e+04	8.477342e+03	8.659772e+03	1.775165e-17	-inf	
8.000000e-01	1.000000e+00	1.969627e-03	6.565078e-03	0.000000e+00	2.387424e-16	2.957835e+05	1.591634e+04	8.534705e-03	3.799257e+04	8.477342e+03	8.659772e+03	1.043817e-17	-inf	
1.000000e+00	1.000000e+00	1.969627e-03	6.565078e-03	-2.951310e-16	-1.055014e-16	2.957835e+05	1.591634e+04	8.534705e-03	3.799257e+04	8.477342e+03	8.659772e+03	1.370324e-17	-inf	
1	2	8	7
2	3	9	8
3	4	10	9
4	5	11	10
5	6	12	11
7	8	14	13
8	9	15	14
9	10	16	15
10	11	17	16
11	12	18	17
13	14	20	19
14	15	21	20
15	16	22	21
16	17	23	22
17	18	24	23
19	20	26	25
20	21	27	26
21	22	28	27
22	23	29	28
23	24	30	29
25	26	32	31
26	27	33	32
27	28	34	33
28	29	35	34
29	30	36	35
