TITLE = "Visualization of the volumetric solution"
VARIABLES = "x","y","Density[0]","Density[1]","Momentum_x","Momentum_y","Energy","Electronic_Energy","Total_Density","Pressure","Temperature","Tve","Mach","C<sub>p</sub>"
ZONE STRANDID=2884, SOLUTIONTIME=2.883e-05, NODES= 36, ELEMENTS= 25, DATAPACKING=POINT, ZONETYPE=FEQUADRILATERAL
0.000000e+00	0.000000e+00	2.156784e-03	6.377921e-03	0.000000e+00	0.000000e+00	2.957835e+05	1.940650e+04	8.534705e-03	3.936594e+04	8.894024e+03	9.354212e+03	0.000000e+00	-inf	
2.000000e-01	0.000000e+00	2.156784e-03	6.377921e-03	0.000000e+00	6.562004e-16	2.957835e+05	1.940650e+04	8.534705e-03	3.936594e+04	8.894024e+03	9.354212e+03	2.823148e-17	-inf	
4.000000e-01	0.000000e+00	2.156784e-03	6.377921e-03	0.000000e+00	-5.211405e-16	2.957835e+05	1.940650e+04	8.534705e-03	3.936594e+04	8.894024e+03	9.354212e+03	2.242084e-17	-inf	
6.000000e-01	0.000000e+00	2.156784e-03	6.377921e-03	0.000000e+00	-1.327862e-16	2.957835e+05	1.940650e+04	8.534705e-03	3.936594e+04	8.894024e+03	9.354212e+03	5.712815e-18	-inf	
8.000000e-01	0.000000e+00	2.156784e-03	6.377921e-03	1.941771e-16	0.000000e+00	2.957835e+05	1.940650e+04	8.534705e-03	3.936594e+04	8.894024e+03	9.354212e+03	8.354013e-18	-inf	
1.000000e+00	0.000000e+00	2.156784e-03	6.377921e-03	3.301466e-16	2.296474e-16	2.957835e+05	1.940650e+04	8.534705e-03	3.936594e+04	8.894024e+03	9.354212e+03	1.730210e-17	-inf	
0.000000e+00	2.000000e-01	2.156784e-03	6.377921e-03	0.000000e+00	0.000000e+00	2.957835e+05	1.940650e+04	8.534705e-03	3.936594e+04	8.894024e+03	9.354212e+03	0.000000e+00	-inf	
2.000000e-01	2.000000e-01	2.156784e-03	6.377921e-03	-2.721663e-16	-1.818989e-18	2.957835e+05	1.940650e+04	8.534705e-03	3.936594e+04	8.894024e+03	9.354212e+03	1.170957e-17	-inf	
4.000000e-01	2.000000e-01	2.156784e-03	6.377921e-03	-3.271907e-16	1.959961e-16	2.957835e+05	1.940650e+04	8.534705e-03	3.936594e+04	8.894024e+03	9.354212e+03	1.640897e-17	-inf	
6.000000e-01	2.000000e-01	2.156784e-03	6.377921e-03	0.000000e+00	2.655725e-16	2.957835e+05	1.940650e+04	8.534705e-03	3.936594e+04	8.894024e+03	9.354212e+03	1.142563e-17	-inf	
8.000000e-01	2.000000e-01	2.156784e-03	6.377921e-03	1.839453e-16	-1.455192e-16	2.957835e+05	1.940650e+04	8.534705e-03	3.936594e+04	8.894024e+03	9.354212e+03	1.009078e-17	-inf	
1.000000e+00	2.000000e-01	2.156784e-03	6.377921e-03	3.333298e-16	-1.618901e-16	2.957835e+05	1.940650e+04	8.534705e-03	3.936594e+04	8.894024e+03	9.354212e+03	1.594261e-17	-inf	
0.000000e+00	4.000000e-01	2.156784e-03	6.377921e-03	-7.303242e-16	0.000000e+00	2.957835e+05	1.940650e+04	8.534705e-03	3.936594e+04	8.894024e+03	9.354212e+03	3.142048e-17	-inf	
2.000000e-01	4.000000e-01	2.156784e-03	6.377921e-03	3.322011e-16	0.000000e+00	2.957835e+05	1.940650e+04	8.534705e-03	3.936594e+04	8.894024e+03	9.354212e+03	1.429217e-17	-inf	
4.000000e-01	4.000000e-01	2.156784e-03	6.377921e-03	1.430262e-16	0.000000e+00	2.957835e+05	1.940650e+04	8.534705e-03	3.936594e+04	8.894024e+03	9.354212e+03	6.153367e-18	-inf	
6.000000e-01	4.000000e-01	2.156784e-03	6.377921e-03	-2.150955e-16	-9.094947e-19	2.957835e+05	1.940650e+04	8.534705e-03	3.936594e+04	8.894024e+03	9.354212e+03	9.254060e-18	-inf	
8.000000e-01	4.000000e-01	2.156784e-03	6.377921e-03	-1.982698e-16	0.000000e+00	2.957835e+05	1.940650e+04	8.534705e-03	3.936594e+04	8.894024e+03	9.354212e+03	8.530093e-18	-inf	
1.000000e+00	4.000000e-01	2.156784e-03	6.377921e-03	0.000000e+00	0.000000e+00	2.957835e+05	1.940650e+04	8.534705e-03	3.936594e+04	8.894024e+03	9.354212e+03	0.000000e+00	-inf	
0.000000e+00	6.000000e-01	2.156784e-03	6.377921e-03	5.211405e-16	1.941771e-16	2.957835e+05	1.940650e+04	8.534705e-03	3.936594e+04	8.894024e+03	9.354212e+03	2.392663e-17	-inf	
2.000000e-01	6.000000e-01	2.156784e-03	6.377921e-03	-1.999247e-17	1.818989e-18	2.957835e+05	1.940650e+04	8.534705e-03	3.936594e+04	8.894024e+03	9.354212e+03	8.636819e-19	-inf	
4.000000e-01	6.000000e-01	2.156784e-03	6.377921e-03	0.000000e+00	-1.959961e-16	2.957835e+05	1.940650e+04	8.534705e-03	3.936594e+04	8.894024e+03	9.354212e+03	8.432271e-18	-inf	
6.000000e-01	6.000000e-01	2.156784e-03	6.377921e-03	1.999247e-17	-2.009983e-16	2.957835e+05	1.940650e+04	8.534705e-03	3.936594e+04	8.894024e+03	9.354212e+03	8.690151e-18	-inf	
8.000000e-01	6.000000e-01	2.156784e-03	6.377921e-03	1.991793e-16	-9.094947e-19	2.957835e+05	1.940650e+04	8.534705e-03	3.936594e+04	8.894024e+03	9.354212e+03	8.569311e-18	-inf	
1.000000e+00	6.000000e-01	2.156784e-03	6.377921e-03	4.311005e-16	-9.094947e-19	2.957835e+05	1.940650e+04	8.534705e-03	3.936594e+04	8.894024e+03	9.354212e+03	1.854712e-17	-inf	
0.000000e+00	8.000000e-01	2.156784e-03	6.377921e-03	-2.946763e-16	0.000000e+00	2.957835e+05	1.940650e+04	8.534705e-03	3.936594e+04	8.894024e+03	9.354212e+03	1.267775e-17	-inf	
2.000000e-01	8.000000e-01	2.156784e-03	6.377921e-03	-2.009983e-16	2.712568e-16	2.957835e+05	1.940650e+04	8.534705e-03	3.936594e+04	8.894024e+03	9.354212e+03	1.452488e-17	-inf	
4.000000e-01	8.000000e-01	2.156784e-03	6.377921e-03	-9.094947e-19	0.000000e+00	2.957835e+05	1.940650e+04	8.534705e-03	3.936594e+04	8.894024e+03	9.354212e+03	3.912887e-20	-inf	
6.000000e-01	8.000000e-01	2.156784e-03	6.377921e-03	0.000000e+00	-2.708020e-16	2.957835e+05	1.940650e+04	8.534705e-03	3.936594e+04	8.894024e+03	9.354212e+03	1.165062e-17	-inf	
8.000000e-01	8.000000e-01	2.156784e-03	6.377921e-03	0.000000e+00	1.923581e-16	2.957835e+05	1.940650e+04	8.534705e-03	3.936594e+04	8.894024e+03	9.354212e+03	8.275755e-18	-inf	
1.000000e+00	8.000000e-01	2.156784e-03	6.377921e-03	-1.309672e-16	-1.844001e-16	2.957835e+05	1.940650e+04	8.534705e-03	3.936594e+04	8.894024e+03	9.354212e+03	9.730710e-18	-inf	
0.000000e+00	1.000000e+00	2.156784e-03	6.377921e-03	1.818989e-18	-3.901732e-16	2.957835e+05	1.940650e+04	8.534705e-03	3.936594e+04	8.894024e+03	9.354212e+03	1.678647e-17	-inf	
2.000000e-01	1.000000e+00	2.156784e-03	6.377921e-03	0.000000e+00	0.000000e+00	2.957835e+05	1.940650e+04	8.534705e-03	3.936594e+04	8.894024e+03	9.354212e+03	0.000000e+00	-inf	
4.000000e-01	1.000000e+00	2.156784e-03	6.377921e-03	0.000000e+00	0.000000e+00	2.957835e+05	1.940650e+04	8.534705e-03	3.936594e+04	8.894024e+03	9.354212e+03	0.000000e+00	-inf	
6.000000e-01	1.000000e+00	2.156784e-03	6.377921e-03	2.005436e-16	-1.086846e-16	2.957835e+05	1.940650e+04	8.534705e-03	3.936594e+04	8.894024e+03	9.354212e+03	9.813509e-18	-inf	
8.000000e-01	1.000000e+00	2.156784e-03	6.377921e-03	0.000000e+00	5.293259e-16	2.957835e+05	1.940650e+04	8.534705e-03	3.936594e+04	8.894024e+03	9.354212e+03	2.277300e-17	-inf	
1.000000e+00	1.000000e+00	2.156784e-03	6.377921e-03	-3.992682e-16	-2.273737e-16	2.957835e+05	1.940650e+04	8.534705e-03	3.936594e+04	8.894024e+03	9.354212e+03	1.976767e-17	-inf	
1	2	8	7
2	3	9	8
3	4	10	9
4	5	11	10
5	6	12	11
7	8	14	13
8	9	15	14
9	10	16	15
10	11	17	16
11	12	18	17
13	14	20	19
14	15	21	20
15	16	22	21
16	17	23	22
17	18	24	23
19	20	26	25
20	21	27	26
21	22	28	27
22	23	29	28
23	24	30	29
25	26	32	31
26	27	33	32
27	28	34	33
28	29	35	34
29	30	36	35
