TITLE = "Visualization of the volumetric solution"
VARIABLES = "x","y","Density[0]","Density[1]","Momentum_x","Momentum_y","Energy","Electronic_Energy","Total_Density","Pressure","Temperature","Tve","Mach","C<sub>p</sub>"
ZONE STRANDID=7794, SOLUTIONTIME=7.793e-05, NODES= 36, ELEMENTS= 25, DATAPACKING=POINT, ZONETYPE=FEQUADRILATERAL
0.000000e+00	0.000000e+00	1.912052e-03	6.622653e-03	0.000000e+00	0.000000e+00	2.957835e+05	1.499383e+04	8.534705e-03	3.747064e+04	8.329126e+03	8.472358e+03	0.000000e+00	-inf	
2.000000e-01	0.000000e+00	1.912052e-03	6.622653e-03	0.000000e+00	1.319222e-15	2.957835e+05	1.499383e+04	8.534705e-03	3.747064e+04	8.329126e+03	8.472358e+03	5.804951e-17	-inf	
4.000000e-01	0.000000e+00	1.912052e-03	6.622653e-03	0.000000e+00	-1.036824e-15	2.957835e+05	1.499383e+04	8.534705e-03	3.747064e+04	8.329126e+03	8.472358e+03	4.562319e-17	-inf	
6.000000e-01	0.000000e+00	1.912052e-03	6.622653e-03	0.000000e+00	-9.285941e-16	2.957835e+05	1.499383e+04	8.534705e-03	3.747064e+04	8.329126e+03	8.472358e+03	4.086077e-17	-inf	
8.000000e-01	0.000000e+00	1.912052e-03	6.622653e-03	2.894467e-16	0.000000e+00	2.957835e+05	1.499383e+04	8.534705e-03	3.747064e+04	8.329126e+03	8.472358e+03	1.273647e-17	-inf	
1.000000e+00	0.000000e+00	1.912052e-03	6.622653e-03	5.225047e-16	-8.685674e-17	2.957835e+05	1.499383e+04	8.534705e-03	3.747064e+04	8.329126e+03	8.472358e+03	2.330719e-17	-inf	
0.000000e+00	2.000000e-01	1.912052e-03	6.622653e-03	0.000000e+00	0.000000e+00	2.957835e+05	1.499383e+04	8.534705e-03	3.747064e+04	8.329126e+03	8.472358e+03	0.000000e+00	-inf	
2.000000e-01	2.000000e-01	1.912052e-03	6.622653e-03	-6.225491e-16	-1.818989e-18	2.957835e+05	1.499383e+04	8.534705e-03	3.747064e+04	8.329126e+03	8.472358e+03	2.739404e-17	-inf	
4.000000e-01	2.000000e-01	1.912052e-03	6.622653e-03	-6.587015e-16	2.912657e-16	2.957835e+05	1.499383e+04	8.534705e-03	3.747064e+04	8.329126e+03	8.472358e+03	3.169192e-17	-inf	
6.000000e-01	2.000000e-01	1.912052e-03	6.622653e-03	0.000000e+00	7.660219e-16	2.957835e+05	1.499383e+04	8.534705e-03	3.747064e+04	8.329126e+03	8.472358e+03	3.370714e-17	-inf	
8.000000e-01	2.000000e-01	1.912052e-03	6.622653e-03	2.760316e-16	-4.745289e-16	2.957835e+05	1.499383e+04	8.534705e-03	3.747064e+04	8.329126e+03	8.472358e+03	2.415636e-17	-inf	
1.000000e+00	2.000000e-01	1.912052e-03	6.622653e-03	5.211405e-16	-2.605702e-16	2.957835e+05	1.499383e+04	8.534705e-03	3.747064e+04	8.329126e+03	8.472358e+03	2.563837e-17	-inf	
0.000000e+00	4.000000e-01	1.912052e-03	6.622653e-03	-1.261014e-15	0.000000e+00	2.957835e+05	1.499383e+04	8.534705e-03	3.747064e+04	8.329126e+03	8.472358e+03	5.548821e-17	-inf	
2.000000e-01	4.000000e-01	1.912052e-03	6.622653e-03	6.141912e-16	0.000000e+00	2.957835e+05	1.499383e+04	8.534705e-03	3.747064e+04	8.329126e+03	8.472358e+03	2.702615e-17	-inf	
4.000000e-01	4.000000e-01	1.912052e-03	6.622653e-03	2.260643e-16	0.000000e+00	2.957835e+05	1.499383e+04	8.534705e-03	3.747064e+04	8.329126e+03	8.472358e+03	9.947471e-18	-inf	
6.000000e-01	4.000000e-01	1.912052e-03	6.622653e-03	-7.125891e-16	-9.094947e-19	2.957835e+05	1.499383e+04	8.534705e-03	3.747064e+04	8.329126e+03	8.472358e+03	3.135597e-17	-inf	
8.000000e-01	4.000000e-01	1.912052e-03	6.622653e-03	-2.983143e-16	0.000000e+00	2.957835e+05	1.499383e+04	8.534705e-03	3.747064e+04	8.329126e+03	8.472358e+03	1.312667e-17	-inf	
1.000000e+00	4.000000e-01	1.912052e-03	6.622653e-03	0.000000e+00	0.000000e+00	2.957835e+05	1.499383e+04	8.534705e-03	3.747064e+04	8.329126e+03	8.472358e+03	0.000000e+00	-inf	
0.000000e+00	6.000000e-01	1.912052e-03	6.622653e-03	1.036824e-15	2.894467e-16	2.957835e+05	1.499383e+04	8.534705e-03	3.747064e+04	8.329126e+03	8.472358e+03	4.736764e-17	-inf	
2.000000e-01	6.000000e-01	1.912052e-03	6.622653e-03	1.170582e-17	1.818989e-18	2.957835e+05	1.499383e+04	8.534705e-03	3.747064e+04	8.329126e+03	8.472358e+03	5.212710e-19	-inf	
4.000000e-01	6.000000e-01	1.912052e-03	6.622653e-03	0.000000e+00	-2.912657e-16	2.957835e+05	1.499383e+04	8.534705e-03	3.747064e+04	8.329126e+03	8.472358e+03	1.281652e-17	-inf	
6.000000e-01	6.000000e-01	1.912052e-03	6.622653e-03	-1.170582e-17	-3.035439e-16	2.957835e+05	1.499383e+04	8.534705e-03	3.747064e+04	8.329126e+03	8.472358e+03	1.336672e-17	-inf	
8.000000e-01	6.000000e-01	1.912052e-03	6.622653e-03	3.813057e-16	-9.094947e-19	2.957835e+05	1.499383e+04	8.534705e-03	3.747064e+04	8.329126e+03	8.472358e+03	1.677858e-17	-inf	
1.000000e+00	6.000000e-01	1.912052e-03	6.622653e-03	1.261924e-15	-9.094947e-19	2.957835e+05	1.499383e+04	8.534705e-03	3.747064e+04	8.329126e+03	8.472358e+03	5.552824e-17	-inf	
0.000000e+00	8.000000e-01	1.912052e-03	6.622653e-03	-4.888534e-16	0.000000e+00	2.957835e+05	1.499383e+04	8.534705e-03	3.747064e+04	8.329126e+03	8.472358e+03	2.151094e-17	-inf	
2.000000e-01	8.000000e-01	1.912052e-03	6.622653e-03	-3.035439e-16	6.216396e-16	2.957835e+05	1.499383e+04	8.534705e-03	3.747064e+04	8.329126e+03	8.472358e+03	3.044076e-17	-inf	
4.000000e-01	8.000000e-01	1.912052e-03	6.622653e-03	-9.094947e-19	0.000000e+00	2.957835e+05	1.499383e+04	8.534705e-03	3.747064e+04	8.329126e+03	8.472358e+03	4.002034e-20	-inf	
6.000000e-01	8.000000e-01	1.912052e-03	6.622653e-03	0.000000e+00	-6.405116e-16	2.957835e+05	1.499383e+04	8.534705e-03	3.747064e+04	8.329126e+03	8.472358e+03	2.818433e-17	-inf	
8.000000e-01	8.000000e-01	1.912052e-03	6.622653e-03	0.000000e+00	2.862635e-16	2.957835e+05	1.499383e+04	8.534705e-03	3.747064e+04	8.329126e+03	8.472358e+03	1.259640e-17	-inf	
1.000000e+00	8.000000e-01	1.912052e-03	6.622653e-03	-9.267751e-16	-2.762590e-16	2.957835e+05	1.499383e+04	8.534705e-03	3.747064e+04	8.329126e+03	8.472358e+03	4.255397e-17	-inf	
0.000000e+00	1.000000e+00	1.912052e-03	6.622653e-03	1.818989e-18	-5.807124e-16	2.957835e+05	1.499383e+04	8.534705e-03	3.747064e+04	8.329126e+03	8.472358e+03	2.555312e-17	-inf	
2.000000e-01	1.000000e+00	1.912052e-03	6.622653e-03	0.000000e+00	0.000000e+00	2.957835e+05	1.499383e+04	8.534705e-03	3.747064e+04	8.329126e+03	8.472358e+03	0.000000e+00	-inf	
4.000000e-01	1.000000e+00	1.912052e-03	6.622653e-03	0.000000e+00	0.000000e+00	2.957835e+05	1.499383e+04	8.534705e-03	3.747064e+04	8.329126e+03	8.472358e+03	0.000000e+00	-inf	
6.000000e-01	1.000000e+00	1.912052e-03	6.622653e-03	3.005880e-16	-6.807568e-16	2.957835e+05	1.499383e+04	8.534705e-03	3.747064e+04	8.329126e+03	8.472358e+03	3.274541e-17	-inf	
8.000000e-01	1.000000e+00	1.912052e-03	6.622653e-03	0.000000e+00	3.833520e-16	2.957835e+05	1.499383e+04	8.534705e-03	3.747064e+04	8.329126e+03	8.472358e+03	1.686858e-17	-inf	
1.000000e+00	1.000000e+00	1.912052e-03	6.622653e-03	-5.993570e-16	5.729817e-17	2.957835e+05	1.499383e+04	8.534705e-03	3.747064e+04	8.329126e+03	8.472358e+03	2.649365e-17	-inf	
1	2	8	7
2	3	9	8
3	4	10	9
4	5	11	10
5	6	12	11
7	8	14	13
8	9	15	14
9	10	16	15
10	11	17	16
11	12	18	17
13	14	20	19
14	15	21	20
15	16	22	21
16	17	23	22
17	18	24	23
19	20	26	25
20	21	27	26
21	22	28	27
22	23	29	28
23	24	30	29
25	26	32	31
26	27	33	32
27	28	34	33
28	29	35	34
29	30	36	35
