TITLE = "Visualization of the volumetric solution"
VARIABLES = "x","y","Density[0]","Density[1]","Momentum_x","Momentum_y","Energy","Electronic_Energy","Total_Density","Pressure","Temperature","Tve","Mach","C<sub>p</sub>"
ZONE STRANDID=9947, SOLUTIONTIME=9.946e-05, NODES= 36, ELEMENTS= 25, DATAPACKING=POINT, ZONETYPE=FEQUADRILATERAL
0.000000e+00	0.000000e+00	1.858113e-03	6.676592e-03	0.000000e+00	0.000000e+00	2.957835e+05	1.416018e+04	8.534705e-03	3.695967e+04	8.186413e+03	8.300563e+03	0.000000e+00	-inf	
2.000000e-01	0.000000e+00	1.858113e-03	6.676592e-03	0.000000e+00	1.512944e-15	2.957835e+05	1.416018e+04	8.534705e-03	3.695967e+04	8.186413e+03	8.300563e+03	6.700107e-17	-inf	
4.000000e-01	0.000000e+00	1.858113e-03	6.676592e-03	0.000000e+00	-1.210992e-15	2.957835e+05	1.416018e+04	8.534705e-03	3.695967e+04	8.186413e+03	8.300563e+03	5.362905e-17	-inf	
6.000000e-01	0.000000e+00	1.858113e-03	6.676592e-03	0.000000e+00	-1.253738e-15	2.957835e+05	1.416018e+04	8.534705e-03	3.695967e+04	8.186413e+03	8.300563e+03	5.552207e-17	-inf	
8.000000e-01	0.000000e+00	1.858113e-03	6.676592e-03	4.204139e-16	0.000000e+00	2.957835e+05	1.416018e+04	8.534705e-03	3.695967e+04	8.186413e+03	8.300563e+03	1.861812e-17	-inf	
1.000000e+00	0.000000e+00	1.858113e-03	6.676592e-03	7.985363e-16	-1.164153e-16	2.957835e+05	1.416018e+04	8.534705e-03	3.695967e+04	8.186413e+03	8.300563e+03	3.573717e-17	-inf	
0.000000e+00	2.000000e-01	1.858113e-03	6.676592e-03	0.000000e+00	0.000000e+00	2.957835e+05	1.416018e+04	8.534705e-03	3.695967e+04	8.186413e+03	8.300563e+03	0.000000e+00	-inf	
2.000000e-01	2.000000e-01	1.858113e-03	6.676592e-03	-8.076313e-16	-1.818989e-18	2.957835e+05	1.416018e+04	8.534705e-03	3.695967e+04	8.186413e+03	8.300563e+03	3.576621e-17	-inf	
4.000000e-01	2.000000e-01	1.858113e-03	6.676592e-03	-7.555627e-16	4.222329e-16	2.957835e+05	1.416018e+04	8.534705e-03	3.695967e+04	8.186413e+03	8.300563e+03	3.833052e-17	-inf	
6.000000e-01	2.000000e-01	1.858113e-03	6.676592e-03	0.000000e+00	1.065928e-15	2.957835e+05	1.416018e+04	8.534705e-03	3.695967e+04	8.186413e+03	8.300563e+03	4.720484e-17	-inf	
8.000000e-01	2.000000e-01	1.858113e-03	6.676592e-03	4.019967e-16	-6.584742e-16	2.957835e+05	1.416018e+04	8.534705e-03	3.695967e+04	8.186413e+03	8.300563e+03	3.416539e-17	-inf	
1.000000e+00	2.000000e-01	1.858113e-03	6.676592e-03	7.930794e-16	-3.954028e-16	2.957835e+05	1.416018e+04	8.534705e-03	3.695967e+04	8.186413e+03	8.300563e+03	3.924475e-17	-inf	
0.000000e+00	4.000000e-01	1.858113e-03	6.676592e-03	-1.253284e-15	0.000000e+00	2.957835e+05	1.416018e+04	8.534705e-03	3.695967e+04	8.186413e+03	8.300563e+03	5.550194e-17	-inf	
2.000000e-01	4.000000e-01	1.858113e-03	6.676592e-03	8.040411e-16	0.000000e+00	2.957835e+05	1.416018e+04	8.534705e-03	3.695967e+04	8.186413e+03	8.300563e+03	3.560713e-17	-inf	
4.000000e-01	4.000000e-01	1.858113e-03	6.676592e-03	3.233731e-16	0.000000e+00	2.957835e+05	1.416018e+04	8.534705e-03	3.695967e+04	8.186413e+03	8.300563e+03	1.432065e-17	-inf	
6.000000e-01	4.000000e-01	1.858113e-03	6.676592e-03	-1.040462e-15	-9.094947e-19	2.957835e+05	1.416018e+04	8.534705e-03	3.695967e+04	8.186413e+03	8.300563e+03	4.607710e-17	-inf	
8.000000e-01	4.000000e-01	1.858113e-03	6.676592e-03	-4.395133e-16	0.000000e+00	2.957835e+05	1.416018e+04	8.534705e-03	3.695967e+04	8.186413e+03	8.300563e+03	1.946394e-17	-inf	
1.000000e+00	4.000000e-01	1.858113e-03	6.676592e-03	0.000000e+00	0.000000e+00	2.957835e+05	1.416018e+04	8.534705e-03	3.695967e+04	8.186413e+03	8.300563e+03	0.000000e+00	-inf	
0.000000e+00	6.000000e-01	1.858113e-03	6.676592e-03	1.210992e-15	4.204139e-16	2.957835e+05	1.416018e+04	8.534705e-03	3.695967e+04	8.186413e+03	8.300563e+03	5.676891e-17	-inf	
2.000000e-01	6.000000e-01	1.858113e-03	6.676592e-03	5.216411e-17	1.818989e-18	2.957835e+05	1.416018e+04	8.534705e-03	3.695967e+04	8.186413e+03	8.300563e+03	2.311503e-18	-inf	
4.000000e-01	6.000000e-01	1.858113e-03	6.676592e-03	0.000000e+00	-4.222329e-16	2.957835e+05	1.416018e+04	8.534705e-03	3.695967e+04	8.186413e+03	8.300563e+03	1.869867e-17	-inf	
6.000000e-01	6.000000e-01	1.858113e-03	6.676592e-03	-5.216411e-17	-4.408776e-16	2.957835e+05	1.416018e+04	8.534705e-03	3.695967e+04	8.186413e+03	8.300563e+03	1.966055e-17	-inf	
8.000000e-01	6.000000e-01	1.858113e-03	6.676592e-03	8.546976e-16	-9.094947e-19	2.957835e+05	1.416018e+04	8.534705e-03	3.695967e+04	8.186413e+03	8.300563e+03	3.785049e-17	-inf	
1.000000e+00	6.000000e-01	1.858113e-03	6.676592e-03	1.253284e-15	-9.094947e-19	2.957835e+05	1.416018e+04	8.534705e-03	3.695967e+04	8.186413e+03	8.300563e+03	5.550195e-17	-inf	
0.000000e+00	8.000000e-01	1.858113e-03	6.676592e-03	-7.544259e-16	0.000000e+00	2.957835e+05	1.416018e+04	8.534705e-03	3.695967e+04	8.186413e+03	8.300563e+03	3.340991e-17	-inf	
2.000000e-01	8.000000e-01	1.858113e-03	6.676592e-03	-4.408776e-16	8.067218e-16	2.957835e+05	1.416018e+04	8.534705e-03	3.695967e+04	8.186413e+03	8.300563e+03	4.071286e-17	-inf	
4.000000e-01	8.000000e-01	1.858113e-03	6.676592e-03	-9.094947e-19	0.000000e+00	2.957835e+05	1.416018e+04	8.534705e-03	3.695967e+04	8.186413e+03	8.300563e+03	4.027717e-20	-inf	
6.000000e-01	8.000000e-01	1.858113e-03	6.676592e-03	0.000000e+00	-7.414656e-16	2.957835e+05	1.416018e+04	8.534705e-03	3.695967e+04	8.186413e+03	8.300563e+03	3.283596e-17	-inf	
8.000000e-01	8.000000e-01	1.858113e-03	6.676592e-03	0.000000e+00	4.122285e-16	2.957835e+05	1.416018e+04	8.534705e-03	3.695967e+04	8.186413e+03	8.300563e+03	1.825563e-17	-inf	
1.000000e+00	8.000000e-01	1.858113e-03	6.676592e-03	-1.324679e-15	-4.160938e-16	2.957835e+05	1.416018e+04	8.534705e-03	3.695967e+04	8.186413e+03	8.300563e+03	6.148964e-17	-inf	
0.000000e+00	1.000000e+00	1.858113e-03	6.676592e-03	1.818989e-18	-8.426468e-16	2.957835e+05	1.416018e+04	8.534705e-03	3.695967e+04	8.186413e+03	8.300563e+03	3.731688e-17	-inf	
2.000000e-01	1.000000e+00	1.858113e-03	6.676592e-03	0.000000e+00	0.000000e+00	2.957835e+05	1.416018e+04	8.534705e-03	3.695967e+04	8.186413e+03	8.300563e+03	0.000000e+00	-inf	
4.000000e-01	1.000000e+00	1.858113e-03	6.676592e-03	0.000000e+00	0.000000e+00	2.957835e+05	1.416018e+04	8.534705e-03	3.695967e+04	8.186413e+03	8.300563e+03	0.000000e+00	-inf	
6.000000e-01	1.000000e+00	1.858113e-03	6.676592e-03	4.417871e-16	-1.050921e-15	2.957835e+05	1.416018e+04	8.534705e-03	3.695967e+04	8.186413e+03	8.300563e+03	5.048536e-17	-inf	
8.000000e-01	1.000000e+00	1.858113e-03	6.676592e-03	0.000000e+00	4.583853e-16	2.957835e+05	1.416018e+04	8.534705e-03	3.695967e+04	8.186413e+03	8.300563e+03	2.029969e-17	-inf	
1.000000e+00	1.000000e+00	1.858113e-03	6.676592e-03	-8.817551e-16	8.594725e-17	2.957835e+05	1.416018e+04	8.534705e-03	3.695967e+04	8.186413e+03	8.300563e+03	3.923377e-17	-inf	
1	2	8	7
2	3	9	8
3	4	10	9
4	5	11	10
5	6	12	11
7	8	14	13
8	9	15	14
9	10	16	15
10	11	17	16
11	12	18	17
13	14	20	19
14	15	21	20
15	16	22	21
16	17	23	22
17	18	24	23
19	20	26	25
20	21	27	26
21	22	28	27
22	23	29	28
23	24	30	29
25	26	32	31
26	27	33	32
27	28	34	33
28	29	35	34
29	30	36	35
