TITLE = "Visualization of the volumetric solution"
VARIABLES = "x","y","Density[0]","Density[1]","Momentum_x","Momentum_y","Energy","Electronic_Energy","Total_Density","Pressure","Temperature","Tve","Mach","C<sub>p</sub>"
ZONE STRANDID=9455, SOLUTIONTIME=9.454e-05, NODES= 36, ELEMENTS= 25, DATAPACKING=POINT, ZONETYPE=FEQUADRILATERAL
0.000000e+00	0.000000e+00	1.869155e-03	6.665550e-03	0.000000e+00	0.000000e+00	2.957835e+05	1.432879e+04	8.534705e-03	3.706579e+04	8.215882e+03	8.335705e+03	0.000000e+00	-inf	
2.000000e-01	0.000000e+00	1.869155e-03	6.665550e-03	0.000000e+00	1.471108e-15	2.957835e+05	1.432879e+04	8.534705e-03	3.706579e+04	8.215882e+03	8.335705e+03	6.506122e-17	-inf	
4.000000e-01	0.000000e+00	1.869155e-03	6.665550e-03	0.000000e+00	-1.168701e-15	2.957835e+05	1.432879e+04	8.534705e-03	3.706579e+04	8.215882e+03	8.335705e+03	5.168697e-17	-inf	
6.000000e-01	0.000000e+00	1.869155e-03	6.665550e-03	0.000000e+00	-1.234639e-15	2.957835e+05	1.432879e+04	8.534705e-03	3.706579e+04	8.215882e+03	8.335705e+03	5.460316e-17	-inf	
8.000000e-01	0.000000e+00	1.869155e-03	6.665550e-03	3.867626e-16	0.000000e+00	2.957835e+05	1.432879e+04	8.534705e-03	3.706579e+04	8.215882e+03	8.335705e+03	1.710497e-17	-inf	
1.000000e+00	0.000000e+00	1.869155e-03	6.665550e-03	7.394192e-16	-1.164153e-16	2.957835e+05	1.432879e+04	8.534705e-03	3.706579e+04	8.215882e+03	8.335705e+03	3.310438e-17	-inf	
0.000000e+00	2.000000e-01	1.869155e-03	6.665550e-03	0.000000e+00	0.000000e+00	2.957835e+05	1.432879e+04	8.534705e-03	3.706579e+04	8.215882e+03	8.335705e+03	0.000000e+00	-inf	
2.000000e-01	2.000000e-01	1.869155e-03	6.665550e-03	-7.651124e-16	-1.818989e-18	2.957835e+05	1.432879e+04	8.534705e-03	3.706579e+04	8.215882e+03	8.335705e+03	3.383796e-17	-inf	
4.000000e-01	2.000000e-01	1.869155e-03	6.665550e-03	-7.346443e-16	3.885816e-16	2.957835e+05	1.432879e+04	8.534705e-03	3.706579e+04	8.215882e+03	8.335705e+03	3.675546e-17	-inf	
6.000000e-01	2.000000e-01	1.869155e-03	6.665550e-03	0.000000e+00	1.024773e-15	2.957835e+05	1.432879e+04	8.534705e-03	3.706579e+04	8.215882e+03	8.335705e+03	4.532163e-17	-inf	
8.000000e-01	2.000000e-01	1.869155e-03	6.665550e-03	3.728928e-16	-6.164100e-16	2.957835e+05	1.432879e+04	8.534705e-03	3.706579e+04	8.215882e+03	8.335705e+03	3.186147e-17	-inf	
1.000000e+00	2.000000e-01	1.869155e-03	6.665550e-03	7.366907e-16	-3.633431e-16	2.957835e+05	1.432879e+04	8.534705e-03	3.706579e+04	8.215882e+03	8.335705e+03	3.632814e-17	-inf	
0.000000e+00	4.000000e-01	1.869155e-03	6.665550e-03	-1.254648e-15	0.000000e+00	2.957835e+05	1.432879e+04	8.534705e-03	3.706579e+04	8.215882e+03	8.335705e+03	5.548807e-17	-inf	
2.000000e-01	4.000000e-01	1.869155e-03	6.665550e-03	7.577606e-16	0.000000e+00	2.957835e+05	1.432879e+04	8.534705e-03	3.706579e+04	8.215882e+03	8.335705e+03	3.351273e-17	-inf	
4.000000e-01	4.000000e-01	1.869155e-03	6.665550e-03	3.014216e-16	0.000000e+00	2.957835e+05	1.432879e+04	8.534705e-03	3.706579e+04	8.215882e+03	8.335705e+03	1.333067e-17	-inf	
6.000000e-01	4.000000e-01	1.869155e-03	6.665550e-03	-9.688392e-16	-9.094947e-19	2.957835e+05	1.432879e+04	8.534705e-03	3.706579e+04	8.215882e+03	8.335705e+03	4.284791e-17	-inf	
8.000000e-01	4.000000e-01	1.869155e-03	6.665550e-03	-4.054073e-16	0.000000e+00	2.957835e+05	1.432879e+04	8.534705e-03	3.706579e+04	8.215882e+03	8.335705e+03	1.792954e-17	-inf	
1.000000e+00	4.000000e-01	1.869155e-03	6.665550e-03	0.000000e+00	0.000000e+00	2.957835e+05	1.432879e+04	8.534705e-03	3.706579e+04	8.215882e+03	8.335705e+03	0.000000e+00	-inf	
0.000000e+00	6.000000e-01	1.869155e-03	6.665550e-03	1.168701e-15	3.867626e-16	2.957835e+05	1.432879e+04	8.534705e-03	3.706579e+04	8.215882e+03	8.335705e+03	5.444375e-17	-inf	
2.000000e-01	6.000000e-01	1.869155e-03	6.665550e-03	4.032075e-17	1.818989e-18	2.957835e+05	1.432879e+04	8.534705e-03	3.706579e+04	8.215882e+03	8.335705e+03	1.785039e-18	-inf	
4.000000e-01	6.000000e-01	1.869155e-03	6.665550e-03	0.000000e+00	-3.885816e-16	2.957835e+05	1.432879e+04	8.534705e-03	3.706579e+04	8.215882e+03	8.335705e+03	1.718541e-17	-inf	
6.000000e-01	6.000000e-01	1.869155e-03	6.665550e-03	-4.032075e-17	-4.092726e-16	2.957835e+05	1.432879e+04	8.534705e-03	3.706579e+04	8.215882e+03	8.335705e+03	1.818812e-17	-inf	
8.000000e-01	6.000000e-01	1.869155e-03	6.665550e-03	7.530616e-16	-9.094947e-19	2.957835e+05	1.432879e+04	8.534705e-03	3.706579e+04	8.215882e+03	8.335705e+03	3.330493e-17	-inf	
1.000000e+00	6.000000e-01	1.869155e-03	6.665550e-03	1.245098e-15	-9.094947e-19	2.957835e+05	1.432879e+04	8.534705e-03	3.706579e+04	8.215882e+03	8.335705e+03	5.506574e-17	-inf	
0.000000e+00	8.000000e-01	1.869155e-03	6.665550e-03	-6.980372e-16	0.000000e+00	2.957835e+05	1.432879e+04	8.534705e-03	3.706579e+04	8.215882e+03	8.335705e+03	3.087140e-17	-inf	
2.000000e-01	8.000000e-01	1.869155e-03	6.665550e-03	-4.092726e-16	7.642029e-16	2.957835e+05	1.432879e+04	8.534705e-03	3.706579e+04	8.215882e+03	8.335705e+03	3.833939e-17	-inf	
4.000000e-01	8.000000e-01	1.869155e-03	6.665550e-03	-9.094947e-19	0.000000e+00	2.957835e+05	1.432879e+04	8.534705e-03	3.706579e+04	8.215882e+03	8.335705e+03	4.022332e-20	-inf	
6.000000e-01	8.000000e-01	1.869155e-03	6.665550e-03	0.000000e+00	-7.169092e-16	2.957835e+05	1.432879e+04	8.534705e-03	3.706579e+04	8.215882e+03	8.335705e+03	3.170603e-17	-inf	
8.000000e-01	8.000000e-01	1.869155e-03	6.665550e-03	0.000000e+00	3.831246e-16	2.957835e+05	1.432879e+04	8.534705e-03	3.706579e+04	8.215882e+03	8.335705e+03	1.694407e-17	-inf	
1.000000e+00	8.000000e-01	1.869155e-03	6.665550e-03	-1.232820e-15	-3.819878e-16	2.957835e+05	1.432879e+04	8.534705e-03	3.706579e+04	8.215882e+03	8.335705e+03	5.708000e-17	-inf	
0.000000e+00	1.000000e+00	1.869155e-03	6.665550e-03	1.818989e-18	-7.753442e-16	2.957835e+05	1.432879e+04	8.534705e-03	3.706579e+04	8.215882e+03	8.335705e+03	3.429047e-17	-inf	
2.000000e-01	1.000000e+00	1.869155e-03	6.665550e-03	0.000000e+00	0.000000e+00	2.957835e+05	1.432879e+04	8.534705e-03	3.706579e+04	8.215882e+03	8.335705e+03	0.000000e+00	-inf	
4.000000e-01	1.000000e+00	1.869155e-03	6.665550e-03	0.000000e+00	0.000000e+00	2.957835e+05	1.432879e+04	8.534705e-03	3.706579e+04	8.215882e+03	8.335705e+03	0.000000e+00	-inf	
6.000000e-01	1.000000e+00	1.869155e-03	6.665550e-03	4.076810e-16	-9.658834e-16	2.957835e+05	1.432879e+04	8.534705e-03	3.706579e+04	8.215882e+03	8.335705e+03	4.636638e-17	-inf	
8.000000e-01	1.000000e+00	1.869155e-03	6.665550e-03	0.000000e+00	4.447429e-16	2.957835e+05	1.432879e+04	8.534705e-03	3.706579e+04	8.215882e+03	8.335705e+03	1.966920e-17	-inf	
1.000000e+00	1.000000e+00	1.869155e-03	6.665550e-03	-8.135430e-16	8.594725e-17	2.957835e+05	1.432879e+04	8.534705e-03	3.706579e+04	8.215882e+03	8.335705e+03	3.617999e-17	-inf	
1	2	8	7
2	3	9	8
3	4	10	9
4	5	11	10
5	6	12	11
7	8	14	13
8	9	15	14
9	10	16	15
10	11	17	16
11	12	18	17
13	14	20	19
14	15	21	20
15	16	22	21
16	17	23	22
17	18	24	23
19	20	26	25
20	21	27	26
21	22	28	27
22	23	29	28
23	24	30	29
25	26	32	31
26	27	33	32
27	28	34	33
28	29	35	34
29	30	36	35
