TITLE = "Visualization of the volumetric solution"
VARIABLES = "x","y","Density[0]","Density[1]","Momentum_x","Momentum_y","Energy","Electronic_Energy","Total_Density","Pressure","Temperature","Tve","Mach","C<sub>p</sub>"
ZONE STRANDID=1405, SOLUTIONTIME=1.404e-05, NODES= 36, ELEMENTS= 25, DATAPACKING=POINT, ZONETYPE=FEQUADRILATERAL
0.000000e+00	0.000000e+00	2.368676e-03	6.166029e-03	0.000000e+00	0.000000e+00	2.957835e+05	2.503491e+04	8.534705e-03	3.987222e+04	9.138254e+03	1.043522e+04	0.000000e+00	-inf	
2.000000e-01	0.000000e+00	2.368676e-03	6.166029e-03	0.000000e+00	3.365130e-16	2.957835e+05	2.503491e+04	8.534705e-03	3.987222e+04	9.138254e+03	1.043522e+04	1.441256e-17	-inf	
4.000000e-01	0.000000e+00	2.368676e-03	6.166029e-03	0.000000e+00	-2.437446e-16	2.957835e+05	2.503491e+04	8.534705e-03	3.987222e+04	9.138254e+03	1.043522e+04	1.043937e-17	-inf	
6.000000e-01	0.000000e+00	2.368676e-03	6.166029e-03	0.000000e+00	-9.003998e-17	2.957835e+05	2.503491e+04	8.534705e-03	3.987222e+04	9.138254e+03	1.043522e+04	3.856333e-18	-inf	
8.000000e-01	0.000000e+00	2.368676e-03	6.166029e-03	5.011316e-16	0.000000e+00	2.957835e+05	2.503491e+04	8.534705e-03	3.987222e+04	9.138254e+03	1.043522e+04	2.146303e-17	-inf	
1.000000e+00	0.000000e+00	2.368676e-03	6.166029e-03	9.727046e-16	8.276402e-17	2.957835e+05	2.503491e+04	8.534705e-03	3.987222e+04	9.138254e+03	1.043522e+04	4.181062e-17	-inf	
0.000000e+00	2.000000e-01	2.368676e-03	6.166029e-03	0.000000e+00	0.000000e+00	2.957835e+05	2.503491e+04	8.534705e-03	3.987222e+04	9.138254e+03	1.043522e+04	0.000000e+00	-inf	
2.000000e-01	2.000000e-01	2.368676e-03	6.166029e-03	-1.361968e-16	-1.818989e-18	2.957835e+05	2.503491e+04	8.534705e-03	3.987222e+04	9.138254e+03	1.043522e+04	5.833711e-18	-inf	
4.000000e-01	2.000000e-01	2.368676e-03	6.166029e-03	-1.673470e-16	5.029506e-16	2.957835e+05	2.503491e+04	8.534705e-03	3.987222e+04	9.138254e+03	1.043522e+04	2.270203e-17	-inf	
6.000000e-01	2.000000e-01	2.368676e-03	6.166029e-03	0.000000e+00	5.454694e-16	2.957835e+05	2.503491e+04	8.534705e-03	3.987222e+04	9.138254e+03	1.043522e+04	2.336198e-17	-inf	
8.000000e-01	2.000000e-01	2.368676e-03	6.166029e-03	4.929461e-16	-8.139978e-17	2.957835e+05	2.503491e+04	8.534705e-03	3.987222e+04	9.138254e+03	1.043522e+04	2.139836e-17	-inf	
1.000000e+00	2.000000e-01	2.368676e-03	6.166029e-03	9.813448e-16	-4.893081e-16	2.957835e+05	2.503491e+04	8.534705e-03	3.987222e+04	9.138254e+03	1.043522e+04	4.696502e-17	-inf	
0.000000e+00	4.000000e-01	2.368676e-03	6.166029e-03	-3.778950e-16	0.000000e+00	2.957835e+05	2.503491e+04	8.534705e-03	3.987222e+04	9.138254e+03	1.043522e+04	1.618491e-17	-inf	
2.000000e-01	4.000000e-01	2.368676e-03	6.166029e-03	5.948739e-16	0.000000e+00	2.957835e+05	2.503491e+04	8.534705e-03	3.987222e+04	9.138254e+03	1.043522e+04	2.547793e-17	-inf	
4.000000e-01	4.000000e-01	2.368676e-03	6.166029e-03	4.618603e-16	0.000000e+00	2.957835e+05	2.503491e+04	8.534705e-03	3.987222e+04	9.138254e+03	1.043522e+04	1.978107e-17	-inf	
6.000000e-01	4.000000e-01	2.368676e-03	6.166029e-03	-5.240963e-16	-9.094947e-19	2.957835e+05	2.503491e+04	8.534705e-03	3.987222e+04	9.138254e+03	1.043522e+04	2.244662e-17	-inf	
8.000000e-01	4.000000e-01	2.368676e-03	6.166029e-03	-5.022684e-16	0.000000e+00	2.957835e+05	2.503491e+04	8.534705e-03	3.987222e+04	9.138254e+03	1.043522e+04	2.151172e-17	-inf	
1.000000e+00	4.000000e-01	2.368676e-03	6.166029e-03	0.000000e+00	0.000000e+00	2.957835e+05	2.503491e+04	8.534705e-03	3.987222e+04	9.138254e+03	1.043522e+04	0.000000e+00	-inf	
0.000000e+00	6.000000e-01	2.368676e-03	6.166029e-03	2.437446e-16	5.011316e-16	2.957835e+05	2.503491e+04	8.534705e-03	3.987222e+04	9.138254e+03	1.043522e+04	2.386717e-17	-inf	
2.000000e-01	6.000000e-01	2.368676e-03	6.166029e-03	-8.738918e-18	1.818989e-18	2.957835e+05	2.503491e+04	8.534705e-03	3.987222e+04	9.138254e+03	1.043522e+04	3.823022e-19	-inf	
4.000000e-01	6.000000e-01	2.368676e-03	6.166029e-03	0.000000e+00	-5.029506e-16	2.957835e+05	2.503491e+04	8.534705e-03	3.987222e+04	9.138254e+03	1.043522e+04	2.154093e-17	-inf	
6.000000e-01	6.000000e-01	2.368676e-03	6.166029e-03	8.738918e-18	-5.022684e-16	2.957835e+05	2.503491e+04	8.534705e-03	3.987222e+04	9.138254e+03	1.043522e+04	2.151497e-17	-inf	
8.000000e-01	6.000000e-01	2.368676e-03	6.166029e-03	5.031779e-16	-9.094947e-19	2.957835e+05	2.503491e+04	8.534705e-03	3.987222e+04	9.138254e+03	1.043522e+04	2.155071e-17	-inf	
1.000000e+00	6.000000e-01	2.368676e-03	6.166029e-03	1.049102e-15	-9.094947e-19	2.957835e+05	2.503491e+04	8.534705e-03	3.987222e+04	9.138254e+03	1.043522e+04	4.493214e-17	-inf	
0.000000e+00	8.000000e-01	2.368676e-03	6.166029e-03	-9.608812e-16	0.000000e+00	2.957835e+05	2.503491e+04	8.534705e-03	3.987222e+04	9.138254e+03	1.043522e+04	4.115370e-17	-inf	
2.000000e-01	8.000000e-01	2.368676e-03	6.166029e-03	-5.022684e-16	1.352873e-16	2.957835e+05	2.503491e+04	8.534705e-03	3.987222e+04	9.138254e+03	1.043522e+04	2.227840e-17	-inf	
4.000000e-01	8.000000e-01	2.368676e-03	6.166029e-03	-9.094947e-19	0.000000e+00	2.957835e+05	2.503491e+04	8.534705e-03	3.987222e+04	9.138254e+03	1.043522e+04	3.895286e-20	-inf	
6.000000e-01	8.000000e-01	2.368676e-03	6.166029e-03	0.000000e+00	-1.214175e-16	2.957835e+05	2.503491e+04	8.534705e-03	3.987222e+04	9.138254e+03	1.043522e+04	5.200207e-18	-inf	
8.000000e-01	8.000000e-01	2.368676e-03	6.166029e-03	0.000000e+00	5.006768e-16	2.957835e+05	2.503491e+04	8.534705e-03	3.987222e+04	9.138254e+03	1.043522e+04	2.144355e-17	-inf	
1.000000e+00	8.000000e-01	2.368676e-03	6.166029e-03	-8.822099e-17	-4.943104e-16	2.957835e+05	2.503491e+04	8.534705e-03	3.987222e+04	9.138254e+03	1.043522e+04	2.150541e-17	-inf	
0.000000e+00	1.000000e+00	2.368676e-03	6.166029e-03	1.818989e-18	-1.004082e-15	2.957835e+05	2.503491e+04	8.534705e-03	3.987222e+04	9.138254e+03	1.043522e+04	4.300403e-17	-inf	
2.000000e-01	1.000000e+00	2.368676e-03	6.166029e-03	0.000000e+00	0.000000e+00	2.957835e+05	2.503491e+04	8.534705e-03	3.987222e+04	9.138254e+03	1.043522e+04	0.000000e+00	-inf	
4.000000e-01	1.000000e+00	2.368676e-03	6.166029e-03	0.000000e+00	0.000000e+00	2.957835e+05	2.503491e+04	8.534705e-03	3.987222e+04	9.138254e+03	1.043522e+04	0.000000e+00	-inf	
6.000000e-01	1.000000e+00	2.368676e-03	6.166029e-03	5.045422e-16	-8.731149e-17	2.957835e+05	2.503491e+04	8.534705e-03	3.987222e+04	9.138254e+03	1.043522e+04	2.193027e-17	-inf	
8.000000e-01	1.000000e+00	2.368676e-03	6.166029e-03	0.000000e+00	1.010449e-15	2.957835e+05	2.503491e+04	8.534705e-03	3.987222e+04	9.138254e+03	1.043522e+04	4.327663e-17	-inf	
1.000000e+00	1.000000e+00	2.368676e-03	6.166029e-03	-1.007265e-15	-7.548806e-17	2.957835e+05	2.503491e+04	8.534705e-03	3.987222e+04	9.138254e+03	1.043522e+04	4.326128e-17	-inf	
1	2	8	7
2	3	9	8
3	4	10	9
4	5	11	10
5	6	12	11
7	8	14	13
8	9	15	14
9	10	16	15
10	11	17	16
11	12	18	17
13	14	20	19
14	15	21	20
15	16	22	21
16	17	23	22
17	18	24	23
19	20	26	25
20	21	27	26
21	22	28	27
22	23	29	28
23	24	30	29
25	26	32	31
26	27	33	32
27	28	34	33
28	29	35	34
29	30	36	35
