TITLE = "Visualization of the volumetric solution"
VARIABLES = "x","y","Density[0]","Density[1]","Momentum_x","Momentum_y","Energy","Electronic_Energy","Total_Density","Pressure","Temperature","Tve","Mach","C<sub>p</sub>"
ZONE STRANDID=9070, SOLUTIONTIME=9.069e-05, NODES= 36, ELEMENTS= 25, DATAPACKING=POINT, ZONETYPE=FEQUADRILATERAL
0.000000e+00	0.000000e+00	1.878272e-03	6.656433e-03	0.000000e+00	0.000000e+00	2.957835e+05	1.446890e+04	8.534705e-03	3.715277e+04	8.240104e+03	8.364432e+03	0.000000e+00	-inf	
2.000000e-01	0.000000e+00	1.878272e-03	6.656433e-03	0.000000e+00	1.436547e-15	2.957835e+05	1.446890e+04	8.534705e-03	3.715277e+04	8.240104e+03	8.364432e+03	6.346334e-17	-inf	
4.000000e-01	0.000000e+00	1.878272e-03	6.656433e-03	0.000000e+00	-1.134595e-15	2.957835e+05	1.446890e+04	8.534705e-03	3.715277e+04	8.240104e+03	8.364432e+03	5.012378e-17	-inf	
6.000000e-01	0.000000e+00	1.878272e-03	6.656433e-03	0.000000e+00	-1.165517e-15	2.957835e+05	1.446890e+04	8.534705e-03	3.715277e+04	8.240104e+03	8.364432e+03	5.148988e-17	-inf	
8.000000e-01	0.000000e+00	1.878272e-03	6.656433e-03	3.565219e-16	0.000000e+00	2.957835e+05	1.446890e+04	8.534705e-03	3.715277e+04	8.240104e+03	8.364432e+03	1.575032e-17	-inf	
1.000000e+00	0.000000e+00	1.878272e-03	6.656433e-03	6.880327e-16	-1.164153e-16	2.957835e+05	1.446890e+04	8.534705e-03	3.715277e+04	8.240104e+03	8.364432e+03	3.082773e-17	-inf	
0.000000e+00	2.000000e-01	1.878272e-03	6.656433e-03	0.000000e+00	0.000000e+00	2.957835e+05	1.446890e+04	8.534705e-03	3.715277e+04	8.240104e+03	8.364432e+03	0.000000e+00	-inf	
2.000000e-01	2.000000e-01	1.878272e-03	6.656433e-03	-7.305516e-16	-1.818989e-18	2.957835e+05	1.446890e+04	8.534705e-03	3.715277e+04	8.240104e+03	8.364432e+03	3.227419e-17	-inf	
4.000000e-01	2.000000e-01	1.878272e-03	6.656433e-03	-7.173639e-16	3.583409e-16	2.957835e+05	1.446890e+04	8.534705e-03	3.715277e+04	8.240104e+03	8.364432e+03	3.542543e-17	-inf	
6.000000e-01	2.000000e-01	1.878272e-03	6.656433e-03	0.000000e+00	9.595169e-16	2.957835e+05	1.446890e+04	8.534705e-03	3.715277e+04	8.240104e+03	8.364432e+03	4.238925e-17	-inf	
8.000000e-01	2.000000e-01	1.878272e-03	6.656433e-03	3.424248e-16	-5.820766e-16	2.957835e+05	1.446890e+04	8.534705e-03	3.715277e+04	8.240104e+03	8.364432e+03	2.983444e-17	-inf	
1.000000e+00	2.000000e-01	1.878272e-03	6.656433e-03	6.848495e-16	-3.392415e-16	2.957835e+05	1.446890e+04	8.534705e-03	3.715277e+04	8.240104e+03	8.364432e+03	3.376355e-17	-inf	
0.000000e+00	4.000000e-01	1.878272e-03	6.656433e-03	-1.256922e-15	0.000000e+00	2.957835e+05	1.446890e+04	8.534705e-03	3.715277e+04	8.240104e+03	8.364432e+03	5.552791e-17	-inf	
2.000000e-01	4.000000e-01	1.878272e-03	6.656433e-03	7.156985e-16	0.000000e+00	2.957835e+05	1.446890e+04	8.534705e-03	3.715277e+04	8.240104e+03	8.364432e+03	3.161792e-17	-inf	
4.000000e-01	4.000000e-01	1.878272e-03	6.656433e-03	2.802779e-16	0.000000e+00	2.957835e+05	1.446890e+04	8.534705e-03	3.715277e+04	8.240104e+03	8.364432e+03	1.238203e-17	-inf	
6.000000e-01	4.000000e-01	1.878272e-03	6.656433e-03	-9.083578e-16	-9.094947e-19	2.957835e+05	1.446890e+04	8.534705e-03	3.715277e+04	8.240104e+03	8.364432e+03	4.012918e-17	-inf	
8.000000e-01	4.000000e-01	1.878272e-03	6.656433e-03	-3.722107e-16	0.000000e+00	2.957835e+05	1.446890e+04	8.534705e-03	3.715277e+04	8.240104e+03	8.364432e+03	1.644341e-17	-inf	
1.000000e+00	4.000000e-01	1.878272e-03	6.656433e-03	0.000000e+00	0.000000e+00	2.957835e+05	1.446890e+04	8.534705e-03	3.715277e+04	8.240104e+03	8.364432e+03	0.000000e+00	-inf	
0.000000e+00	6.000000e-01	1.878272e-03	6.656433e-03	1.134595e-15	3.565219e-16	2.957835e+05	1.446890e+04	8.534705e-03	3.715277e+04	8.240104e+03	8.364432e+03	5.254014e-17	-inf	
2.000000e-01	6.000000e-01	1.878272e-03	6.656433e-03	3.350363e-17	1.818989e-18	2.957835e+05	1.446890e+04	8.534705e-03	3.715277e+04	8.240104e+03	8.364432e+03	1.482293e-18	-inf	
4.000000e-01	6.000000e-01	1.878272e-03	6.656433e-03	0.000000e+00	-3.583409e-16	2.957835e+05	1.446890e+04	8.534705e-03	3.715277e+04	8.240104e+03	8.364432e+03	1.583068e-17	-inf	
6.000000e-01	6.000000e-01	1.878272e-03	6.656433e-03	-3.350363e-17	-3.785772e-16	2.957835e+05	1.446890e+04	8.534705e-03	3.715277e+04	8.240104e+03	8.364432e+03	1.679004e-17	-inf	
8.000000e-01	6.000000e-01	1.878272e-03	6.656433e-03	6.521077e-16	-9.094947e-19	2.957835e+05	1.446890e+04	8.534705e-03	3.715277e+04	8.240104e+03	8.364432e+03	2.880865e-17	-inf	
1.000000e+00	6.000000e-01	1.878272e-03	6.656433e-03	1.259650e-15	-9.094947e-19	2.957835e+05	1.446890e+04	8.534705e-03	3.715277e+04	8.240104e+03	8.364432e+03	5.564847e-17	-inf	
0.000000e+00	8.000000e-01	1.878272e-03	6.656433e-03	-6.411938e-16	0.000000e+00	2.957835e+05	1.446890e+04	8.534705e-03	3.715277e+04	8.240104e+03	8.364432e+03	2.832647e-17	-inf	
2.000000e-01	8.000000e-01	1.878272e-03	6.656433e-03	-3.785772e-16	7.296421e-16	2.957835e+05	1.446890e+04	8.534705e-03	3.715277e+04	8.240104e+03	8.364432e+03	3.631446e-17	-inf	
4.000000e-01	8.000000e-01	1.878272e-03	6.656433e-03	-9.094947e-19	0.000000e+00	2.957835e+05	1.446890e+04	8.534705e-03	3.715277e+04	8.240104e+03	8.364432e+03	4.017939e-20	-inf	
6.000000e-01	8.000000e-01	1.878272e-03	6.656433e-03	0.000000e+00	-6.998562e-16	2.957835e+05	1.446890e+04	8.534705e-03	3.715277e+04	8.240104e+03	8.364432e+03	3.091804e-17	-inf	
8.000000e-01	8.000000e-01	1.878272e-03	6.656433e-03	0.000000e+00	3.526566e-16	2.957835e+05	1.446890e+04	8.534705e-03	3.715277e+04	8.240104e+03	8.364432e+03	1.557956e-17	-inf	
1.000000e+00	8.000000e-01	1.878272e-03	6.656433e-03	-1.163698e-15	-3.487912e-16	2.957835e+05	1.446890e+04	8.534705e-03	3.715277e+04	8.240104e+03	8.364432e+03	5.366908e-17	-inf	
0.000000e+00	1.000000e+00	1.878272e-03	6.656433e-03	1.818989e-18	-7.148628e-16	2.957835e+05	1.446890e+04	8.534705e-03	3.715277e+04	8.240104e+03	8.364432e+03	3.158110e-17	-inf	
2.000000e-01	1.000000e+00	1.878272e-03	6.656433e-03	0.000000e+00	0.000000e+00	2.957835e+05	1.446890e+04	8.534705e-03	3.715277e+04	8.240104e+03	8.364432e+03	0.000000e+00	-inf	
4.000000e-01	1.000000e+00	1.878272e-03	6.656433e-03	0.000000e+00	0.000000e+00	2.957835e+05	1.446890e+04	8.534705e-03	3.715277e+04	8.240104e+03	8.364432e+03	0.000000e+00	-inf	
6.000000e-01	1.000000e+00	1.878272e-03	6.656433e-03	3.744844e-16	-8.967618e-16	2.957835e+05	1.446890e+04	8.534705e-03	3.715277e+04	8.240104e+03	8.364432e+03	4.293246e-17	-inf	
8.000000e-01	1.000000e+00	1.878272e-03	6.656433e-03	0.000000e+00	4.247340e-16	2.957835e+05	1.446890e+04	8.534705e-03	3.715277e+04	8.240104e+03	8.364432e+03	1.876377e-17	-inf	
1.000000e+00	1.000000e+00	1.878272e-03	6.656433e-03	-7.471499e-16	8.594725e-17	2.957835e+05	1.446890e+04	8.534705e-03	3.715277e+04	8.240104e+03	8.364432e+03	3.322504e-17	-inf	
1	2	8	7
2	3	9	8
3	4	10	9
4	5	11	10
5	6	12	11
7	8	14	13
8	9	15	14
9	10	16	15
10	11	17	16
11	12	18	17
13	14	20	19
14	15	21	20
15	16	22	21
16	17	23	22
17	18	24	23
19	20	26	25
20	21	27	26
21	22	28	27
22	23	29	28
23	24	30	29
25	26	32	31
26	27	33	32
27	28	34	33
28	29	35	34
29	30	36	35
