TITLE = "Visualization of the volumetric solution"
VARIABLES = "x","y","Density[0]","Density[1]","Momentum_x","Momentum_y","Energy","Electronic_Energy","Total_Density","Pressure","Temperature","Tve","Mach","C<sub>p</sub>"
ZONE STRANDID=9981, SOLUTIONTIME=9.98e-05, NODES= 36, ELEMENTS= 25, DATAPACKING=POINT, ZONETYPE=FEQUADRILATERAL
0.000000e+00	0.000000e+00	1.857374e-03	6.677331e-03	0.000000e+00	0.000000e+00	2.957835e+05	1.414894e+04	8.534705e-03	3.695253e+04	8.184434e+03	8.298224e+03	0.000000e+00	-inf	
2.000000e-01	0.000000e+00	1.857374e-03	6.677331e-03	0.000000e+00	1.515673e-15	2.957835e+05	1.414894e+04	8.534705e-03	3.695253e+04	8.184434e+03	8.298224e+03	6.712795e-17	-inf	
4.000000e-01	0.000000e+00	1.857374e-03	6.677331e-03	0.000000e+00	-1.214175e-15	2.957835e+05	1.414894e+04	8.534705e-03	3.695253e+04	8.184434e+03	8.298224e+03	5.377487e-17	-inf	
6.000000e-01	0.000000e+00	1.857374e-03	6.677331e-03	0.000000e+00	-1.253284e-15	2.957835e+05	1.414894e+04	8.534705e-03	3.695253e+04	8.184434e+03	8.298224e+03	5.550694e-17	-inf	
8.000000e-01	0.000000e+00	1.857374e-03	6.677331e-03	4.245067e-16	0.000000e+00	2.957835e+05	1.414894e+04	8.534705e-03	3.695253e+04	8.184434e+03	8.298224e+03	1.880106e-17	-inf	
1.000000e+00	0.000000e+00	1.857374e-03	6.677331e-03	8.076313e-16	-1.164153e-16	2.957835e+05	1.414894e+04	8.534705e-03	3.695253e+04	8.184434e+03	8.298224e+03	3.613904e-17	-inf	
0.000000e+00	2.000000e-01	1.857374e-03	6.677331e-03	0.000000e+00	0.000000e+00	2.957835e+05	1.414894e+04	8.534705e-03	3.695253e+04	8.184434e+03	8.298224e+03	0.000000e+00	-inf	
2.000000e-01	2.000000e-01	1.857374e-03	6.677331e-03	-8.114966e-16	-1.818989e-18	2.957835e+05	1.414894e+04	8.534705e-03	3.695253e+04	8.184434e+03	8.298224e+03	3.594063e-17	-inf	
4.000000e-01	2.000000e-01	1.857374e-03	6.677331e-03	-7.569270e-16	4.263256e-16	2.957835e+05	1.414894e+04	8.534705e-03	3.695253e+04	8.184434e+03	8.298224e+03	3.847537e-17	-inf	
6.000000e-01	2.000000e-01	1.857374e-03	6.677331e-03	0.000000e+00	1.069793e-15	2.957835e+05	1.414894e+04	8.534705e-03	3.695253e+04	8.184434e+03	8.298224e+03	4.738029e-17	-inf	
8.000000e-01	2.000000e-01	1.857374e-03	6.677331e-03	4.065441e-16	-6.614300e-16	2.957835e+05	1.414894e+04	8.534705e-03	3.695253e+04	8.184434e+03	8.298224e+03	3.438531e-17	-inf	
1.000000e+00	2.000000e-01	1.857374e-03	6.677331e-03	8.017196e-16	-3.994955e-16	2.957835e+05	1.414894e+04	8.534705e-03	3.695253e+04	8.184434e+03	8.298224e+03	3.967163e-17	-inf	
0.000000e+00	4.000000e-01	1.857374e-03	6.677331e-03	-1.253738e-15	0.000000e+00	2.957835e+05	1.414894e+04	8.534705e-03	3.695253e+04	8.184434e+03	8.298224e+03	5.552708e-17	-inf	
2.000000e-01	4.000000e-01	1.857374e-03	6.677331e-03	8.107051e-16	0.000000e+00	2.957835e+05	1.414894e+04	8.534705e-03	3.695253e+04	8.184434e+03	8.298224e+03	3.590549e-17	-inf	
4.000000e-01	4.000000e-01	1.857374e-03	6.677331e-03	3.263992e-16	0.000000e+00	2.957835e+05	1.414894e+04	8.534705e-03	3.695253e+04	8.184434e+03	8.298224e+03	1.445596e-17	-inf	
6.000000e-01	4.000000e-01	1.857374e-03	6.677331e-03	-1.047738e-15	-9.094947e-19	2.957835e+05	1.414894e+04	8.534705e-03	3.695253e+04	8.184434e+03	8.298224e+03	4.640350e-17	-inf	
8.000000e-01	4.000000e-01	1.857374e-03	6.677331e-03	-4.440608e-16	0.000000e+00	2.957835e+05	1.414894e+04	8.534705e-03	3.695253e+04	8.184434e+03	8.298224e+03	1.966710e-17	-inf	
1.000000e+00	4.000000e-01	1.857374e-03	6.677331e-03	0.000000e+00	0.000000e+00	2.957835e+05	1.414894e+04	8.534705e-03	3.695253e+04	8.184434e+03	8.298224e+03	0.000000e+00	-inf	
0.000000e+00	6.000000e-01	1.857374e-03	6.677331e-03	1.214175e-15	4.245067e-16	2.957835e+05	1.414894e+04	8.534705e-03	3.695253e+04	8.184434e+03	8.298224e+03	5.696680e-17	-inf	
2.000000e-01	6.000000e-01	1.857374e-03	6.677331e-03	5.298659e-17	1.818989e-18	2.957835e+05	1.414894e+04	8.534705e-03	3.695253e+04	8.184434e+03	8.298224e+03	2.348116e-18	-inf	
4.000000e-01	6.000000e-01	1.857374e-03	6.677331e-03	0.000000e+00	-4.263256e-16	2.957835e+05	1.414894e+04	8.534705e-03	3.695253e+04	8.184434e+03	8.298224e+03	1.888162e-17	-inf	
6.000000e-01	6.000000e-01	1.857374e-03	6.677331e-03	-5.298659e-17	-4.449703e-16	2.957835e+05	1.414894e+04	8.534705e-03	3.695253e+04	8.184434e+03	8.298224e+03	1.984661e-17	-inf	
8.000000e-01	6.000000e-01	1.857374e-03	6.677331e-03	8.658390e-16	-9.094947e-19	2.957835e+05	1.414894e+04	8.534705e-03	3.695253e+04	8.184434e+03	8.298224e+03	3.834734e-17	-inf	
1.000000e+00	6.000000e-01	1.857374e-03	6.677331e-03	1.254648e-15	-9.094947e-19	2.957835e+05	1.414894e+04	8.534705e-03	3.695253e+04	8.184434e+03	8.298224e+03	5.556738e-17	-inf	
0.000000e+00	8.000000e-01	1.857374e-03	6.677331e-03	-7.626113e-16	0.000000e+00	2.957835e+05	1.414894e+04	8.534705e-03	3.695253e+04	8.184434e+03	8.298224e+03	3.377545e-17	-inf	
2.000000e-01	8.000000e-01	1.857374e-03	6.677331e-03	-4.449703e-16	8.105872e-16	2.957835e+05	1.414894e+04	8.534705e-03	3.695253e+04	8.184434e+03	8.298224e+03	4.095375e-17	-inf	
4.000000e-01	8.000000e-01	1.857374e-03	6.677331e-03	-9.094947e-19	0.000000e+00	2.957835e+05	1.414894e+04	8.534705e-03	3.695253e+04	8.184434e+03	8.298224e+03	4.028080e-20	-inf	
6.000000e-01	8.000000e-01	1.857374e-03	6.677331e-03	0.000000e+00	-7.428298e-16	2.957835e+05	1.414894e+04	8.534705e-03	3.695253e+04	8.184434e+03	8.298224e+03	3.289934e-17	-inf	
8.000000e-01	8.000000e-01	1.857374e-03	6.677331e-03	0.000000e+00	4.167759e-16	2.957835e+05	1.414894e+04	8.534705e-03	3.695253e+04	8.184434e+03	8.298224e+03	1.845868e-17	-inf	
1.000000e+00	8.000000e-01	1.857374e-03	6.677331e-03	-1.331955e-15	-4.206413e-16	2.957835e+05	1.414894e+04	8.534705e-03	3.695253e+04	8.184434e+03	8.298224e+03	6.186305e-17	-inf	
0.000000e+00	1.000000e+00	1.857374e-03	6.677331e-03	1.818989e-18	-8.508323e-16	2.957835e+05	1.414894e+04	8.534705e-03	3.695253e+04	8.184434e+03	8.298224e+03	3.768277e-17	-inf	
2.000000e-01	1.000000e+00	1.857374e-03	6.677331e-03	0.000000e+00	0.000000e+00	2.957835e+05	1.414894e+04	8.534705e-03	3.695253e+04	8.184434e+03	8.298224e+03	0.000000e+00	-inf	
4.000000e-01	1.000000e+00	1.857374e-03	6.677331e-03	0.000000e+00	0.000000e+00	2.957835e+05	1.414894e+04	8.534705e-03	3.695253e+04	8.184434e+03	8.298224e+03	0.000000e+00	-inf	
6.000000e-01	1.000000e+00	1.857374e-03	6.677331e-03	4.463345e-16	-1.058652e-15	2.957835e+05	1.414894e+04	8.534705e-03	3.695253e+04	8.184434e+03	8.298224e+03	5.088362e-17	-inf	
8.000000e-01	1.000000e+00	1.857374e-03	6.677331e-03	0.000000e+00	4.633876e-16	2.957835e+05	1.414894e+04	8.534705e-03	3.695253e+04	8.184434e+03	8.298224e+03	2.052307e-17	-inf	
1.000000e+00	1.000000e+00	1.857374e-03	6.677331e-03	-8.908501e-16	8.594725e-17	2.957835e+05	1.414894e+04	8.534705e-03	3.695253e+04	8.184434e+03	8.298224e+03	3.963824e-17	-inf	
1	2	8	7
2	3	9	8
3	4	10	9
4	5	11	10
5	6	12	11
7	8	14	13
8	9	15	14
9	10	16	15
10	11	17	16
11	12	18	17
13	14	20	19
14	15	21	20
15	16	22	21
16	17	23	22
17	18	24	23
19	20	26	25
20	21	27	26
21	22	28	27
22	23	29	28
23	24	30	29
25	26	32	31
26	27	33	32
27	28	34	33
28	29	35	34
29	30	36	35
