TITLE = "Visualization of the surface solution"
VARIABLES = "x","y","Density[0]","Density[1]","Density[2]","Density[3]","Density[4]","Density[5]","Density[6]","Density[7]","Momentum_x","Momentum_y","Energy","Electronic Energy","Total Density","Pressure","Temperature","Tve","Mach","C<sub>p</sub>"
ZONE NODES= 70, ELEMENTS= 69, DATAPACKING=POINT, ZONETYPE=FELINESEG
9.848077e-01	1.736484e-01	0.000000e+00	0.000000e+00	0.000000e+00	0.000000e+00	2.226218e+00	0.000000e+00	0.000000e+00	0.000000e+00	3.071396e+03	9.986771e+00	-1.790263e+07	3.366547e+04	2.226218e+00	1.299131e+05	3.088876e+02	2.893234e+02	4.826851e+00	1.612242e-02	
9.848077e-01	5.209451e-01	0.000000e+00	0.000000e+00	0.000000e+00	0.000000e+00	1.861287e+00	0.000000e+00	0.000000e+00	0.000000e+00	2.569206e+03	1.387743e-12	-1.498483e+07	2.775288e+04	1.861287e+00	1.013250e+05	2.881500e+02	2.881500e+02	5.000000e+00	8.452845e-15	
9.848077e-01	1.748967e-01	0.000000e+00	0.000000e+00	0.000000e+00	0.000000e+00	1.861761e+00	0.000000e+00	0.000000e+00	0.000000e+00	2.569796e+03	3.721865e-01	-1.498862e+07	2.776158e+04	1.861761e+00	1.013958e+05	2.882778e+02	2.881548e+02	4.998766e+00	3.991850e-05	
9.848077e-01	1.761888e-01	0.000000e+00	0.000000e+00	0.000000e+00	0.000000e+00	1.861292e+00	0.000000e+00	0.000000e+00	0.000000e+00	2.569212e+03	2.655306e-03	-1.498487e+07	2.775296e+04	1.861292e+00	1.013256e+05	2.881510e+02	2.881500e+02	4.999990e+00	3.480293e-07	
9.848077e-01	1.775261e-01	0.000000e+00	0.000000e+00	0.000000e+00	0.000000e+00	1.861287e+00	0.000000e+00	0.000000e+00	0.000000e+00	2.569206e+03	1.283633e-05	-1.498483e+07	2.775288e+04	1.861287e+00	1.013250e+05	2.881500e+02	2.881500e+02	5.000000e+00	1.675683e-09	
9.848077e-01	1.789102e-01	0.000000e+00	0.000000e+00	0.000000e+00	0.000000e+00	1.861287e+00	0.000000e+00	0.000000e+00	0.000000e+00	2.569206e+03	4.206266e-08	-1.498483e+07	2.775288e+04	1.861287e+00	1.013250e+05	2.881500e+02	2.881500e+02	5.000000e+00	5.505822e-12	
9.848077e-01	1.803427e-01	0.000000e+00	0.000000e+00	0.000000e+00	0.000000e+00	1.861287e+00	0.000000e+00	0.000000e+00	0.000000e+00	2.569206e+03	9.438989e-11	-1.498483e+07	2.775288e+04	1.861287e+00	1.013250e+05	2.881500e+02	2.881500e+02	5.000000e+00	1.918714e-14	
9.848077e-01	1.818254e-01	0.000000e+00	0.000000e+00	0.000000e+00	0.000000e+00	1.861287e+00	0.000000e+00	0.000000e+00	0.000000e+00	2.569206e+03	2.588406e-14	-1.498483e+07	2.775288e+04	1.861287e+00	1.013250e+05	2.881500e+02	2.881500e+02	5.000000e+00	7.221848e-15	
9.848077e-01	1.833599e-01	0.000000e+00	0.000000e+00	0.000000e+00	0.000000e+00	1.861287e+00	0.000000e+00	0.000000e+00	0.000000e+00	2.569206e+03	-1.253185e-14	-1.498483e+07	2.775288e+04	1.861287e+00	1.013250e+05	2.881500e+02	2.881500e+02	5.000000e+00	6.524283e-15	
9.848077e-01	1.849482e-01	0.000000e+00	0.000000e+00	0.000000e+00	0.000000e+00	1.861287e+00	0.000000e+00	0.000000e+00	0.000000e+00	2.569206e+03	-3.137092e-15	-1.498483e+07	2.775288e+04	1.861287e+00	1.013250e+05	2.881500e+02	2.881500e+02	5.000000e+00	5.843132e-15	
9.848077e-01	1.865921e-01	0.000000e+00	0.000000e+00	0.000000e+00	0.000000e+00	1.861287e+00	0.000000e+00	0.000000e+00	0.000000e+00	2.569206e+03	-1.630385e-13	-1.498483e+07	2.775288e+04	1.861287e+00	1.013250e+05	2.881500e+02	2.881500e+02	5.000000e+00	5.949818e-15	
9.848077e-01	1.882935e-01	0.000000e+00	0.000000e+00	0.000000e+00	0.000000e+00	1.861287e+00	0.000000e+00	0.000000e+00	0.000000e+00	2.569206e+03	1.409497e-13	-1.498483e+07	2.775288e+04	1.861287e+00	1.013250e+05	2.881500e+02	2.881500e+02	5.000000e+00	6.023678e-15	
9.848077e-01	1.900544e-01	0.000000e+00	0.000000e+00	0.000000e+00	0.000000e+00	1.861287e+00	0.000000e+00	0.000000e+00	0.000000e+00	2.569206e+03	-1.452595e-13	-1.498483e+07	2.775288e+04	1.861287e+00	1.013250e+05	2.881500e+02	2.881500e+02	5.000000e+00	6.146777e-15	
9.848077e-01	1.918770e-01	0.000000e+00	0.000000e+00	0.000000e+00	0.000000e+00	1.861287e+00	0.000000e+00	0.000000e+00	0.000000e+00	2.569206e+03	3.783864e-14	-1.498483e+07	2.775288e+04	1.861287e+00	1.013250e+05	2.881500e+02	2.881500e+02	5.000000e+00	6.237051e-15	
9.848077e-01	1.937633e-01	0.000000e+00	0.000000e+00	0.000000e+00	0.000000e+00	1.861287e+00	0.000000e+00	0.000000e+00	0.000000e+00	2.569206e+03	1.013958e-13	-1.498483e+07	2.775288e+04	1.861287e+00	1.013250e+05	2.881500e+02	2.881500e+02	5.000000e+00	6.319117e-15	
9.848077e-01	1.957157e-01	0.000000e+00	0.000000e+00	0.000000e+00	0.000000e+00	1.861287e+00	0.000000e+00	0.000000e+00	0.000000e+00	2.569206e+03	-1.339911e-14	-1.498483e+07	2.775288e+04	1.861287e+00	1.013250e+05	2.881500e+02	2.881500e+02	5.000000e+00	7.221848e-15	
9.848077e-01	1.977365e-01	0.000000e+00	0.000000e+00	0.000000e+00	0.000000e+00	1.861287e+00	0.000000e+00	0.000000e+00	0.000000e+00	2.569206e+03	-6.612552e-14	-1.498483e+07	2.775288e+04	1.861287e+00	1.013250e+05	2.881500e+02	2.881500e+02	5.000000e+00	7.320328e-15	
9.848077e-01	1.998279e-01	0.000000e+00	0.000000e+00	0.000000e+00	0.000000e+00	1.861287e+00	0.000000e+00	0.000000e+00	0.000000e+00	2.569206e+03	-9.888788e-15	-1.498483e+07	2.775288e+04	1.861287e+00	1.013250e+05	2.881500e+02	2.881500e+02	5.000000e+00	6.622763e-15	
9.848077e-01	2.019926e-01	0.000000e+00	0.000000e+00	0.000000e+00	0.000000e+00	1.861287e+00	0.000000e+00	0.000000e+00	0.000000e+00	2.569206e+03	-3.148104e-13	-1.498483e+07	2.775288e+04	1.861287e+00	1.013250e+05	2.881500e+02	2.881500e+02	5.000000e+00	6.721243e-15	
9.848077e-01	2.042330e-01	0.000000e+00	0.000000e+00	0.000000e+00	0.000000e+00	1.861287e+00	0.000000e+00	0.000000e+00	0.000000e+00	2.569206e+03	8.139920e-16	-1.498483e+07	2.775288e+04	1.861287e+00	1.013250e+05	2.881500e+02	2.881500e+02	5.000000e+00	6.803309e-15	
9.848077e-01	2.065518e-01	0.000000e+00	0.000000e+00	0.000000e+00	0.000000e+00	1.861287e+00	0.000000e+00	0.000000e+00	0.000000e+00	2.569206e+03	-3.801448e-14	-1.498483e+07	2.775288e+04	1.861287e+00	1.013250e+05	2.881500e+02	2.881500e+02	5.000000e+00	6.893582e-15	
9.848077e-01	2.089518e-01	0.000000e+00	0.000000e+00	0.000000e+00	0.000000e+00	1.861287e+00	0.000000e+00	0.000000e+00	0.000000e+00	2.569206e+03	3.071761e-14	-1.498483e+07	2.775288e+04	1.861287e+00	1.013250e+05	2.881500e+02	2.881500e+02	5.000000e+00	7.763487e-15	
9.848077e-01	2.114358e-01	0.000000e+00	0.000000e+00	0.000000e+00	0.000000e+00	1.861287e+00	0.000000e+00	0.000000e+00	0.000000e+00	2.569206e+03	-5.963030e-14	-1.498483e+07	2.775288e+04	1.861287e+00	1.013250e+05	2.881500e+02	2.881500e+02	5.000000e+00	7.861966e-15	
9.848077e-01	2.140067e-01	0.000000e+00	0.000000e+00	0.000000e+00	0.000000e+00	1.861287e+00	0.000000e+00	0.000000e+00	0.000000e+00	2.569206e+03	6.339273e-14	-1.498483e+07	2.775288e+04	1.861287e+00	1.013250e+05	2.881500e+02	2.881500e+02	5.000000e+00	7.164401e-15	
9.848077e-01	2.166676e-01	0.000000e+00	0.000000e+00	0.000000e+00	0.000000e+00	1.861287e+00	0.000000e+00	0.000000e+00	0.000000e+00	2.569206e+03	-1.043692e-13	-1.498483e+07	2.775288e+04	1.861287e+00	1.013250e+05	2.881500e+02	2.881500e+02	5.000000e+00	7.262881e-15	
9.848077e-01	2.194217e-01	0.000000e+00	0.000000e+00	0.000000e+00	0.000000e+00	1.861287e+00	0.000000e+00	0.000000e+00	0.000000e+00	2.569206e+03	5.338434e-14	-1.498483e+07	2.775288e+04	1.861287e+00	1.013250e+05	2.881500e+02	2.881500e+02	5.000000e+00	7.353154e-15	
9.848077e-01	2.222721e-01	0.000000e+00	0.000000e+00	0.000000e+00	0.000000e+00	1.861287e+00	0.000000e+00	0.000000e+00	0.000000e+00	2.569206e+03	-1.155048e-13	-1.498483e+07	2.775288e+04	1.861287e+00	1.013250e+05	2.881500e+02	2.881500e+02	5.000000e+00	7.443427e-15	
9.848077e-01	2.252223e-01	0.000000e+00	0.000000e+00	0.000000e+00	0.000000e+00	1.861287e+00	0.000000e+00	0.000000e+00	0.000000e+00	2.569206e+03	-8.427373e-14	-1.498483e+07	2.775288e+04	1.861287e+00	1.013250e+05	2.881500e+02	2.881500e+02	5.000000e+00	7.525494e-15	
9.848077e-01	2.282757e-01	0.000000e+00	0.000000e+00	0.000000e+00	0.000000e+00	1.861287e+00	0.000000e+00	0.000000e+00	0.000000e+00	2.569206e+03	-5.216170e-15	-1.498483e+07	2.775288e+04	1.861287e+00	1.013250e+05	2.881500e+02	2.881500e+02	5.000000e+00	7.607560e-15	
9.848077e-01	2.314361e-01	0.000000e+00	0.000000e+00	0.000000e+00	0.000000e+00	1.861287e+00	0.000000e+00	0.000000e+00	0.000000e+00	2.569206e+03	1.115898e-13	-1.498483e+07	2.775288e+04	1.861287e+00	1.013250e+05	2.881500e+02	2.881500e+02	5.000000e+00	8.469258e-15	
9.848077e-01	2.347070e-01	0.000000e+00	0.000000e+00	0.000000e+00	0.000000e+00	1.861287e+00	0.000000e+00	0.000000e+00	0.000000e+00	2.569206e+03	-1.720467e-13	-1.498483e+07	2.775288e+04	1.861287e+00	1.013250e+05	2.881500e+02	2.881500e+02	5.000000e+00	8.584151e-15	
9.848077e-01	2.380924e-01	0.000000e+00	0.000000e+00	0.000000e+00	0.000000e+00	1.861287e+00	0.000000e+00	0.000000e+00	0.000000e+00	2.569206e+03	5.540170e-14	-1.498483e+07	2.775288e+04	1.861287e+00	1.013250e+05	2.881500e+02	2.881500e+02	5.000000e+00	7.853760e-15	
9.848077e-01	2.415963e-01	0.000000e+00	0.000000e+00	0.000000e+00	0.000000e+00	1.861287e+00	0.000000e+00	0.000000e+00	0.000000e+00	2.569206e+03	1.391925e-15	-1.498483e+07	2.775288e+04	1.861287e+00	1.013250e+05	2.881500e+02	2.881500e+02	5.000000e+00	8.740077e-15	
9.848077e-01	2.452229e-01	0.000000e+00	0.000000e+00	0.000000e+00	0.000000e+00	1.861287e+00	0.000000e+00	0.000000e+00	0.000000e+00	2.569206e+03	-6.559671e-14	-1.498483e+07	2.775288e+04	1.861287e+00	1.013250e+05	2.881500e+02	2.881500e+02	5.000000e+00	8.042513e-15	
9.848077e-01	2.489763e-01	0.000000e+00	0.000000e+00	0.000000e+00	0.000000e+00	1.861287e+00	0.000000e+00	0.000000e+00	0.000000e+00	2.569206e+03	-7.528299e-14	-1.498483e+07	2.775288e+04	1.861287e+00	1.013250e+05	2.881500e+02	2.881500e+02	5.000000e+00	8.904210e-15	
9.848077e-01	2.528612e-01	0.000000e+00	0.000000e+00	0.000000e+00	0.000000e+00	1.861287e+00	0.000000e+00	0.000000e+00	0.000000e+00	2.569206e+03	3.120093e-14	-1.498483e+07	2.775288e+04	1.861287e+00	1.013250e+05	2.881500e+02	2.881500e+02	5.000000e+00	8.190232e-15	
9.848077e-01	2.568820e-01	0.000000e+00	0.000000e+00	0.000000e+00	0.000000e+00	1.861287e+00	0.000000e+00	0.000000e+00	0.000000e+00	2.569206e+03	-5.273466e-14	-1.498483e+07	2.775288e+04	1.861287e+00	1.013250e+05	2.881500e+02	2.881500e+02	5.000000e+00	9.068343e-15	
9.848077e-01	2.610436e-01	0.000000e+00	0.000000e+00	0.000000e+00	0.000000e+00	1.861287e+00	0.000000e+00	0.000000e+00	0.000000e+00	2.569206e+03	-4.930981e-14	-1.498483e+07	2.775288e+04	1.861287e+00	1.013250e+05	2.881500e+02	2.881500e+02	5.000000e+00	8.370778e-15	
9.848077e-01	2.653508e-01	0.000000e+00	0.000000e+00	0.000000e+00	0.000000e+00	1.861287e+00	0.000000e+00	0.000000e+00	0.000000e+00	2.569206e+03	-1.741727e-14	-1.498483e+07	2.775288e+04	1.861287e+00	1.013250e+05	2.881500e+02	2.881500e+02	5.000000e+00	8.428225e-15	
9.848077e-01	2.698087e-01	0.000000e+00	0.000000e+00	0.000000e+00	0.000000e+00	1.861287e+00	0.000000e+00	0.000000e+00	0.000000e+00	2.569206e+03	7.267256e-14	-1.498483e+07	2.775288e+04	1.861287e+00	1.013250e+05	2.881500e+02	2.881500e+02	5.000000e+00	8.518498e-15	
9.848077e-01	2.744227e-01	0.000000e+00	0.000000e+00	0.000000e+00	0.000000e+00	1.861287e+00	0.000000e+00	0.000000e+00	0.000000e+00	2.569206e+03	-3.692990e-14	-1.498483e+07	2.775288e+04	1.861287e+00	1.013250e+05	2.881500e+02	2.881500e+02	5.000000e+00	8.608771e-15	
9.848077e-01	2.791981e-01	0.000000e+00	0.000000e+00	0.000000e+00	0.000000e+00	1.861287e+00	0.000000e+00	0.000000e+00	0.000000e+00	2.569206e+03	-7.205056e-14	-1.498483e+07	2.775288e+04	1.861287e+00	1.013250e+05	2.881500e+02	2.881500e+02	5.000000e+00	8.682631e-15	
9.848077e-01	2.841408e-01	0.000000e+00	0.000000e+00	0.000000e+00	0.000000e+00	1.861287e+00	0.000000e+00	0.000000e+00	0.000000e+00	2.569206e+03	8.092190e-14	-1.498483e+07	2.775288e+04	1.861287e+00	1.013250e+05	2.881500e+02	2.881500e+02	5.000000e+00	8.740077e-15	
9.848077e-01	2.892564e-01	0.000000e+00	0.000000e+00	0.000000e+00	0.000000e+00	1.861287e+00	0.000000e+00	0.000000e+00	0.000000e+00	2.569206e+03	-2.020950e-14	-1.498483e+07	2.775288e+04	1.861287e+00	1.013250e+05	2.881500e+02	2.881500e+02	5.000000e+00	8.846764e-15	
9.848077e-01	2.945510e-01	0.000000e+00	0.000000e+00	0.000000e+00	0.000000e+00	1.861287e+00	0.000000e+00	0.000000e+00	0.000000e+00	2.569206e+03	-7.716291e-14	-1.498483e+07	2.775288e+04	1.861287e+00	1.013250e+05	2.881500e+02	2.881500e+02	5.000000e+00	8.912417e-15	
9.848077e-01	3.000310e-01	0.000000e+00	0.000000e+00	0.000000e+00	0.000000e+00	1.861287e+00	0.000000e+00	0.000000e+00	0.000000e+00	2.569206e+03	-7.370163e-14	-1.498483e+07	2.775288e+04	1.861287e+00	1.013250e+05	2.881500e+02	2.881500e+02	5.000000e+00	8.994483e-15	
9.848077e-01	3.057027e-01	0.000000e+00	0.000000e+00	0.000000e+00	0.000000e+00	1.861287e+00	0.000000e+00	0.000000e+00	0.000000e+00	2.569206e+03	5.661118e-14	-1.498483e+07	2.775288e+04	1.861287e+00	1.013250e+05	2.881500e+02	2.881500e+02	5.000000e+00	9.043723e-15	
9.848077e-01	3.115730e-01	0.000000e+00	0.000000e+00	0.000000e+00	0.000000e+00	1.861287e+00	0.000000e+00	0.000000e+00	0.000000e+00	2.569206e+03	-6.619983e-14	-1.498483e+07	2.775288e+04	1.861287e+00	1.013250e+05	2.881500e+02	2.881500e+02	5.000000e+00	9.125790e-15	
9.848077e-01	3.176487e-01	0.000000e+00	0.000000e+00	0.000000e+00	0.000000e+00	1.861287e+00	0.000000e+00	0.000000e+00	0.000000e+00	2.569206e+03	3.401063e-14	-1.498483e+07	2.775288e+04	1.861287e+00	1.013250e+05	2.881500e+02	2.881500e+02	5.000000e+00	9.191443e-15	
9.848077e-01	3.239371e-01	0.000000e+00	0.000000e+00	0.000000e+00	0.000000e+00	1.861287e+00	0.000000e+00	0.000000e+00	0.000000e+00	2.569206e+03	1.106318e-14	-1.498483e+07	2.775288e+04	1.861287e+00	1.013250e+05	2.881500e+02	2.881500e+02	5.000000e+00	9.273509e-15	
9.848077e-01	3.304456e-01	0.000000e+00	0.000000e+00	0.000000e+00	0.000000e+00	1.861287e+00	0.000000e+00	0.000000e+00	0.000000e+00	2.569206e+03	-4.083436e-14	-1.498483e+07	2.775288e+04	1.861287e+00	1.013250e+05	2.881500e+02	2.881500e+02	5.000000e+00	9.363782e-15	
9.848077e-01	3.371818e-01	0.000000e+00	0.000000e+00	0.000000e+00	0.000000e+00	1.861287e+00	0.000000e+00	0.000000e+00	0.000000e+00	2.569206e+03	-2.451261e-14	-1.498483e+07	2.775288e+04	1.861287e+00	1.013250e+05	2.881500e+02	2.881500e+02	5.000000e+00	1.020907e-14	
9.848077e-01	3.441539e-01	0.000000e+00	0.000000e+00	0.000000e+00	0.000000e+00	1.861287e+00	0.000000e+00	0.000000e+00	0.000000e+00	2.569206e+03	3.559872e-14	-1.498483e+07	2.775288e+04	1.861287e+00	1.013250e+05	2.881500e+02	2.881500e+02	5.000000e+00	9.495089e-15	
9.848077e-01	3.513699e-01	0.000000e+00	0.000000e+00	0.000000e+00	0.000000e+00	1.861287e+00	0.000000e+00	0.000000e+00	0.000000e+00	2.569206e+03	-3.062076e-14	-1.498483e+07	2.775288e+04	1.861287e+00	1.013250e+05	2.881500e+02	2.881500e+02	5.000000e+00	9.568949e-15	
9.848077e-01	3.588386e-01	0.000000e+00	0.000000e+00	0.000000e+00	0.000000e+00	1.861287e+00	0.000000e+00	0.000000e+00	0.000000e+00	2.569206e+03	-1.183172e-14	-1.498483e+07	2.775288e+04	1.861287e+00	1.013250e+05	2.881500e+02	2.881500e+02	5.000000e+00	1.042244e-14	
9.848077e-01	3.665686e-01	0.000000e+00	0.000000e+00	0.000000e+00	0.000000e+00	1.861287e+00	0.000000e+00	0.000000e+00	0.000000e+00	2.569206e+03	-4.116578e-14	-1.498483e+07	2.775288e+04	1.861287e+00	1.013250e+05	2.881500e+02	2.881500e+02	5.000000e+00	1.048809e-14	
9.848077e-01	3.745692e-01	0.000000e+00	0.000000e+00	0.000000e+00	0.000000e+00	1.861287e+00	0.000000e+00	0.000000e+00	0.000000e+00	2.569206e+03	2.020591e-14	-1.498483e+07	2.775288e+04	1.861287e+00	1.013250e+05	2.881500e+02	2.881500e+02	5.000000e+00	9.757701e-15	
9.848077e-01	3.828498e-01	0.000000e+00	0.000000e+00	0.000000e+00	0.000000e+00	1.861287e+00	0.000000e+00	0.000000e+00	0.000000e+00	2.569206e+03	-8.184911e-14	-1.498483e+07	2.775288e+04	1.861287e+00	1.013250e+05	2.881500e+02	2.881500e+02	5.000000e+00	1.062761e-14	
9.848077e-01	3.914202e-01	0.000000e+00	0.000000e+00	0.000000e+00	0.000000e+00	1.861287e+00	0.000000e+00	0.000000e+00	0.000000e+00	2.569206e+03	3.030324e-14	-1.498483e+07	2.775288e+04	1.861287e+00	1.013250e+05	2.881500e+02	2.881500e+02	5.000000e+00	9.889008e-15	
9.848077e-01	4.002905e-01	0.000000e+00	0.000000e+00	0.000000e+00	0.000000e+00	1.861287e+00	0.000000e+00	0.000000e+00	0.000000e+00	2.569206e+03	9.965013e-15	-1.498483e+07	2.775288e+04	1.861287e+00	1.013250e+05	2.881500e+02	2.881500e+02	5.000000e+00	1.075891e-14	
9.848077e-01	4.094714e-01	0.000000e+00	0.000000e+00	0.000000e+00	0.000000e+00	1.861287e+00	0.000000e+00	0.000000e+00	0.000000e+00	2.569206e+03	-3.535011e-14	-1.498483e+07	2.775288e+04	1.861287e+00	1.013250e+05	2.881500e+02	2.881500e+02	5.000000e+00	1.005314e-14	
9.848077e-01	4.189736e-01	0.000000e+00	0.000000e+00	0.000000e+00	0.000000e+00	1.861287e+00	0.000000e+00	0.000000e+00	0.000000e+00	2.569206e+03	3.298317e-14	-1.498483e+07	2.775288e+04	1.861287e+00	1.013250e+05	2.881500e+02	2.881500e+02	5.000000e+00	1.011059e-14	
9.848077e-01	4.288083e-01	0.000000e+00	0.000000e+00	0.000000e+00	0.000000e+00	1.861287e+00	0.000000e+00	0.000000e+00	0.000000e+00	2.569206e+03	-6.981497e-14	-1.498483e+07	2.775288e+04	1.861287e+00	1.013250e+05	2.881500e+02	2.881500e+02	5.000000e+00	1.020086e-14	
9.848077e-01	4.389873e-01	0.000000e+00	0.000000e+00	0.000000e+00	0.000000e+00	1.861287e+00	0.000000e+00	0.000000e+00	0.000000e+00	2.569206e+03	1.045744e-14	-1.498483e+07	2.775288e+04	1.861287e+00	1.013250e+05	2.881500e+02	2.881500e+02	5.000000e+00	1.024189e-14	
9.848077e-01	4.495225e-01	0.000000e+00	0.000000e+00	0.000000e+00	0.000000e+00	1.861287e+00	0.000000e+00	0.000000e+00	0.000000e+00	2.569206e+03	5.866025e-15	-1.498483e+07	2.775288e+04	1.861287e+00	1.013250e+05	2.881500e+02	2.881500e+02	5.000000e+00	1.033217e-14	
9.848077e-01	4.604265e-01	0.000000e+00	0.000000e+00	0.000000e+00	0.000000e+00	1.861287e+00	0.000000e+00	0.000000e+00	0.000000e+00	2.569206e+03	-3.742838e-14	-1.498483e+07	2.775288e+04	1.861287e+00	1.013250e+05	2.881500e+02	2.881500e+02	5.000000e+00	1.039782e-14	
9.848077e-01	4.717121e-01	0.000000e+00	0.000000e+00	0.000000e+00	0.000000e+00	1.861287e+00	0.000000e+00	0.000000e+00	0.000000e+00	2.569206e+03	2.049677e-14	-1.498483e+07	2.775288e+04	1.861287e+00	1.013250e+05	2.881500e+02	2.881500e+02	5.000000e+00	1.047168e-14	
9.848077e-01	4.833927e-01	0.000000e+00	0.000000e+00	0.000000e+00	0.000000e+00	1.861287e+00	0.000000e+00	0.000000e+00	0.000000e+00	2.569206e+03	2.629442e-15	-1.498483e+07	2.775288e+04	1.861287e+00	1.013250e+05	2.881500e+02	2.881500e+02	5.000000e+00	1.052092e-14	
9.848077e-01	4.954821e-01	0.000000e+00	0.000000e+00	0.000000e+00	0.000000e+00	1.861287e+00	0.000000e+00	0.000000e+00	0.000000e+00	2.569206e+03	-2.764517e-14	-1.498483e+07	2.775288e+04	1.861287e+00	1.013250e+05	2.881500e+02	2.881500e+02	5.000000e+00	1.062761e-14	
9.848077e-01	5.079946e-01	0.000000e+00	0.000000e+00	0.000000e+00	0.000000e+00	1.861287e+00	0.000000e+00	0.000000e+00	0.000000e+00	2.569206e+03	2.781776e-13	-1.498483e+07	2.775288e+04	1.861287e+00	1.013250e+05	2.881500e+02	2.881500e+02	5.000000e+00	1.059478e-14	
1	3
3	4
4	5
5	6
6	7
7	8
8	9
9	10
10	11
11	12
12	13
13	14
14	15
15	16
16	17
17	18
18	19
19	20
20	21
21	22
22	23
23	24
24	25
25	26
26	27
27	28
28	29
29	30
30	31
31	32
32	33
33	34
34	35
35	36
36	37
37	38
38	39
39	40
40	41
41	42
42	43
43	44
44	45
45	46
46	47
47	48
48	49
49	50
50	51
51	52
52	53
53	54
54	55
55	56
56	57
57	58
58	59
59	60
60	61
61	62
62	63
63	64
64	65
65	66
66	67
67	68
68	69
69	70
70	2
