TITLE = "Visualization of the solution"
VARIABLES = "x","y","z","Density_0","Density_1","Momentum_x","Momentum_y","Momentum_z","Energy","Energy_ve","MassFrac_0","MassFrac_1","Pressure","Temperature_tr","Temperature_ve","Mach","Pressure_Coefficient"
ZONE NODES= 12285, ELEMENTS= 7936, DATAPACKING=POINT, ZONETYPE=FEBRICK
-4.999214e-02	2.659750e-03	0.000000e+00	2.615792e-04	2.618411e-07	2.034311e+00	-1.920523e-10	-8.107936e-12	7.960700e+03	4.131144e-04	9.990000e-01	1.000000e-03	1.975940e+01	2.540000e+02	2.540350e+02	2.390000e+01	-7.239316e-12	
-4.973899e-02	1.532448e-02	0.000000e+00	2.615792e-04	2.618411e-07	2.034311e+00	-3.324825e-13	-1.406611e-14	7.960700e+03	4.131144e-04	9.990000e-01	1.000000e-03	1.975940e+01	2.540000e+02	2.540350e+02	2.390000e+01	1.110212e-13	
-4.912947e-02	2.797706e-02	0.000000e+00	2.615792e-04	2.618411e-07	2.034311e+00	6.393473e-15	2.786990e-16	7.960700e+03	4.131144e-04	9.990000e-01	1.000000e-03	1.975940e+01	2.540000e+02	2.540350e+02	2.390000e+01	1.257135e-13	
-4.816407e-02	4.060748e-02	0.000000e+00	2.615792e-04	2.618411e-07	2.034311e+00	1.182341e-14	5.133506e-16	7.960700e+03	4.131144e-04	9.990000e-01	1.000000e-03	1.975940e+01	2.540000e+02	2.540350e+02	2.390000e+01	1.279622e-13	
-4.684354e-02	5.320572e-02	0.000000e+00	2.615792e-04	2.618411e-07	2.034311e+00	1.578596e-14	6.621126e-16	7.960700e+03	4.131144e-04	9.990000e-01	1.000000e-03	1.975940e+01	2.540000e+02	2.540350e+02	2.390000e+01	1.304847e-13	
-4.516894e-02	6.576179e-02	0.000000e+00	2.615792e-04	2.618411e-07	2.034311e+00	2.003997e-14	8.851254e-16	7.960700e+03	4.131144e-04	9.990000e-01	1.000000e-03	1.975940e+01	2.540000e+02	2.540350e+02	2.390000e+01	1.339702e-13	
-4.314159e-02	7.826576e-02	0.000000e+00	2.615792e-04	2.618411e-07	2.034311e+00	2.466109e-14	1.073725e-15	7.960700e+03	4.131144e-04	9.990000e-01	1.000000e-03	1.975940e+01	2.540000e+02	2.540350e+02	2.390000e+01	1.380990e-13	
-4.076310e-02	9.070772e-02	0.000000e+00	2.615792e-04	2.618411e-07	2.034311e+00	2.972380e-14	1.293915e-15	7.960700e+03	4.131144e-04	9.990000e-01	1.000000e-03	1.975940e+01	2.540000e+02	2.540350e+02	2.390000e+01	1.430074e-13	
-3.803535e-02	1.030778e-01	0.000000e+00	2.615792e-04	2.618411e-07	2.034311e+00	3.524559e-14	1.537480e-15	7.960700e+03	4.131144e-04	9.990000e-01	1.000000e-03	1.975940e+01	2.540000e+02	2.540350e+02	2.390000e+01	1.483716e-13	
-3.496051e-02	1.153662e-01	0.000000e+00	2.615792e-04	2.618411e-07	2.034311e+00	4.143202e-14	1.811313e-15	7.960700e+03	4.131144e-04	9.990000e-01	1.000000e-03	1.975940e+01	2.540000e+02	2.540350e+02	2.390000e+01	1.548858e-13	
-3.154100e-02	1.275632e-01	0.000000e+00	2.615792e-04	2.618411e-07	2.034311e+00	4.831552e-14	2.112691e-15	7.960700e+03	4.131144e-04	9.990000e-01	1.000000e-03	1.975940e+01	2.540000e+02	2.540350e+02	2.390000e+01	1.621328e-13	
-2.777955e-02	1.396591e-01	0.000000e+00	2.615792e-04	2.618411e-07	2.034311e+00	5.591807e-14	2.434995e-15	7.960700e+03	4.131144e-04	9.990000e-01	1.000000e-03	1.975940e+01	2.540000e+02	2.540350e+02	2.390000e+01	1.699296e-13	
-2.367913e-02	1.516443e-01	0.000000e+00	2.615792e-04	2.618411e-07	2.034311e+00	6.442064e-14	2.805674e-15	7.960700e+03	4.131144e-04	9.990000e-01	1.000000e-03	1.975940e+01	2.540000e+02	2.540350e+02	2.390000e+01	1.786436e-13	
-1.924298e-02	1.635094e-01	0.000000e+00	2.615792e-04	2.618411e-07	2.034311e+00	7.408115e-14	3.236284e-15	7.960700e+03	4.131144e-04	9.990000e-01	1.000000e-03	1.975940e+01	2.540000e+02	2.540350e+02	2.390000e+01	1.886424e-13	
-1.447464e-02	1.752449e-01	0.000000e+00	2.615792e-04	2.618411e-07	2.034311e+00	8.496716e-14	3.710764e-15	7.960700e+03	4.131144e-04	9.990000e-01	1.000000e-03	1.975940e+01	2.540000e+02	2.540350e+02	2.390000e+01	1.996527e-13	
-9.377862e-03	1.868416e-01	0.000000e+00	2.615792e-04	2.618411e-07	2.034311e+00	9.692187e-14	4.213715e-15	7.960700e+03	4.131144e-04	9.990000e-01	1.000000e-03	1.975940e+01	2.540000e+02	2.540350e+02	2.390000e+01	2.109790e-13	
-3.956700e-03	1.982902e-01	0.000000e+00	2.615792e-04	2.618411e-07	2.034311e+00	1.107035e-13	4.817626e-15	7.960700e+03	4.131144e-04	9.990000e-01	1.000000e-03	1.975940e+01	2.540000e+02	2.540350e+02	2.390000e+01	2.242358e-13	
1.784554e-03	2.095816e-01	0.000000e+00	2.615792e-04	2.618411e-07	2.034311e+00	1.260062e-13	5.480085e-15	7.960700e+03	4.131144e-04	9.990000e-01	1.000000e-03	1.975940e+01	2.540000e+02	2.540350e+02	2.390000e+01	2.380865e-13	
7.841350e-03	2.207070e-01	0.000000e+00	2.615792e-04	2.618411e-07	2.034311e+00	1.434328e-13	6.249123e-15	7.960700e+03	4.131144e-04	9.990000e-01	1.000000e-03	1.975940e+01	2.540000e+02	2.540350e+02	2.390000e+01	2.535911e-13	
1.420889e-02	2.316575e-01	0.000000e+00	2.615792e-04	2.618411e-07	2.034311e+00	1.628679e-13	7.099348e-15	7.960700e+03	4.131144e-04	9.990000e-01	1.000000e-03	1.975940e+01	2.540000e+02	2.540350e+02	2.390000e+01	2.699648e-13	
2.088213e-02	2.424245e-01	0.000000e+00	2.615792e-04	2.618411e-07	2.034311e+00	1.848051e-13	8.050112e-15	7.960700e+03	4.131144e-04	9.990000e-01	1.000000e-03	1.975940e+01	2.540000e+02	2.540350e+02	2.390000e+01	2.878063e-13	
2.785578e-02	2.529994e-01	0.000000e+00	2.615792e-04	2.618411e-07	2.034311e+00	2.096069e-13	9.124445e-15	7.960700e+03	4.131144e-04	9.990000e-01	1.000000e-03	1.975940e+01	2.540000e+02	2.540350e+02	2.390000e+01	3.072082e-13	
3.512431e-02	2.633737e-01	0.000000e+00	2.615792e-04	2.618411e-07	2.034311e+00	2.376569e-13	1.034907e-14	7.960700e+03	4.131144e-04	9.990000e-01	1.000000e-03	1.975940e+01	2.540000e+02	2.540350e+02	2.390000e+01	3.282613e-13	
4.268196e-02	2.735394e-01	0.000000e+00	2.615792e-04	2.618411e-07	2.034311e+00	2.692539e-13	1.172140e-14	7.960700e+03	4.131144e-04	9.990000e-01	1.000000e-03	1.975940e+01	2.540000e+02	2.540350e+02	2.390000e+01	3.508727e-13	
5.052276e-02	2.834884e-01	0.000000e+00	2.615792e-04	2.618411e-07	2.034311e+00	3.052395e-13	1.329954e-14	7.960700e+03	4.131144e-04	9.990000e-01	1.000000e-03	1.975940e+01	2.540000e+02	2.540350e+02	2.390000e+01	3.756874e-13	
5.864047e-02	2.932127e-01	0.000000e+00	2.615792e-04	2.618411e-07	2.034311e+00	3.457906e-13	1.504995e-14	7.960700e+03	4.131144e-04	9.990000e-01	1.000000e-03	1.975940e+01	2.540000e+02	2.540350e+02	2.390000e+01	4.021979e-13	
6.702868e-02	3.027046e-01	0.000000e+00	2.615792e-04	2.618411e-07	2.034311e+00	3.920643e-13	1.706605e-14	7.960700e+03	4.131144e-04	9.990000e-01	1.000000e-03	1.975940e+01	2.540000e+02	2.540350e+02	2.390000e+01	4.312776e-13	
7.568073e-02	3.119567e-01	0.000000e+00	2.615792e-04	2.618411e-07	2.034311e+00	4.444006e-13	1.934631e-14	7.960700e+03	4.131144e-04	9.990000e-01	1.000000e-03	1.975940e+01	2.540000e+02	2.540350e+02	2.390000e+01	4.624208e-13	
8.458977e-02	3.209617e-01	0.000000e+00	2.615792e-04	2.618411e-07	2.034311e+00	5.043442e-13	2.197099e-14	7.960700e+03	4.131144e-04	9.990000e-01	1.000000e-03	1.975940e+01	2.540000e+02	2.540350e+02	2.390000e+01	4.966386e-13	
9.374873e-02	3.297122e-01	0.000000e+00	2.615792e-04	2.618411e-07	2.034311e+00	5.728272e-13	2.495116e-14	7.960700e+03	4.131144e-04	9.990000e-01	1.000000e-03	1.975940e+01	2.540000e+02	2.540350e+02	2.390000e+01	5.337912e-13	
1.031504e-01	3.382016e-01	0.000000e+00	2.615792e-04	2.618411e-07	2.034311e+00	6.512626e-13	2.836079e-14	7.960700e+03	4.131144e-04	9.990000e-01	1.000000e-03	1.975940e+01	2.540000e+02	2.540350e+02	2.390000e+01	5.742458e-13	
1.127872e-01	3.464229e-01	0.000000e+00	2.615792e-04	2.618411e-07	2.034311e+00	7.204321e-13	3.136934e-14	7.960700e+03	4.131144e-04	9.990000e-01	1.000000e-03	1.975940e+01	2.540000e+02	2.540350e+02	2.390000e+01	6.094720e-13	
1.180018e-01	3.506808e-01	0.000000e+00	2.615792e-04	2.618411e-07	2.034311e+00	7.910075e-13	3.444620e-14	7.960700e+03	4.131144e-04	9.990000e-01	1.000000e-03	1.975940e+01	2.540000e+02	2.540350e+02	2.390000e+01	6.463036e-13	
1.233572e-01	3.549208e-01	0.000000e+00	2.615792e-04	2.618411e-07	2.034311e+00	8.613394e-13	3.750662e-14	7.960700e+03	4.131144e-04	9.990000e-01	1.000000e-03	1.975940e+01	2.540000e+02	2.540350e+02	2.390000e+01	6.803825e-13	
1.289348e-01	3.591987e-01	0.000000e+00	2.615792e-04	2.618411e-07	2.034311e+00	9.361487e-13	4.075182e-14	7.960700e+03	4.131144e-04	9.990000e-01	1.000000e-03	1.975940e+01	2.540000e+02	2.540350e+02	2.390000e+01	7.153335e-13	
1.348221e-01	3.635666e-01	0.000000e+00	2.615792e-04	2.618411e-07	2.034311e+00	1.019316e-12	4.436133e-14	7.960700e+03	4.131144e-04	9.990000e-01	1.000000e-03	1.975940e+01	2.540000e+02	2.540350e+02	2.390000e+01	7.528530e-13	
1.411139e-01	3.680733e-01	0.000000e+00	2.615792e-04	2.618411e-07	2.034311e+00	1.114082e-12	4.846699e-14	7.960700e+03	4.131144e-04	9.990000e-01	1.000000e-03	1.975940e+01	2.540000e+02	2.540350e+02	2.390000e+01	7.937671e-13	
1.479145e-01	3.727639e-01	0.000000e+00	2.615792e-04	2.618411e-07	2.034311e+00	1.224446e-12	5.328157e-14	7.960700e+03	4.131144e-04	9.990000e-01	1.000000e-03	1.975940e+01	2.540000e+02	2.540350e+02	2.390000e+01	8.393148e-13	
1.553395e-01	3.776788e-01	0.000000e+00	2.615792e-04	2.618411e-07	2.034311e+00	1.354732e-12	5.892157e-14	7.960700e+03	4.131144e-04	9.990000e-01	1.000000e-03	1.975940e+01	2.540000e+02	2.540350e+02	2.390000e+01	8.900893e-13	
1.635178e-01	3.828527e-01	0.000000e+00	2.615792e-04	2.618411e-07	2.034311e+00	1.512589e-12	6.579079e-14	7.960700e+03	4.131144e-04	9.990000e-01	1.000000e-03	1.975940e+01	2.540000e+02	2.540350e+02	2.390000e+01	9.486182e-13	
1.725946e-01	3.883127e-01	0.000000e+00	2.615792e-04	2.618411e-07	2.034311e+00	1.706972e-12	7.421043e-14	7.960700e+03	4.131144e-04	9.990000e-01	1.000000e-03	1.975940e+01	2.540000e+02	2.540350e+02	2.390000e+01	1.016182e-12	
1.827338e-01	3.940754e-01	0.000000e+00	2.615792e-04	2.618411e-07	2.034311e+00	1.952210e-12	8.484417e-14	7.960700e+03	4.131144e-04	9.990000e-01	1.000000e-03	1.975940e+01	2.540000e+02	2.540350e+02	2.390000e+01	1.095948e-12	
1.941214e-01	4.001425e-01	0.000000e+00	2.615792e-04	2.618411e-07	2.034311e+00	2.269844e-12	9.864186e-14	7.960700e+03	4.131144e-04	9.990000e-01	1.000000e-03	1.975940e+01	2.540000e+02	2.540350e+02	2.390000e+01	1.191815e-12	
2.069687e-01	4.064959e-01	0.000000e+00	2.615792e-04	2.618411e-07	2.034311e+00	2.693233e-12	1.170102e-13	7.960700e+03	4.131144e-04	9.990000e-01	1.000000e-03	1.975940e+01	2.540000e+02	2.540350e+02	2.390000e+01	1.309011e-12	
2.215156e-01	4.130900e-01	0.000000e+00	2.615792e-04	2.618411e-07	2.034311e+00	3.279781e-12	1.424324e-13	7.960700e+03	4.131144e-04	9.990000e-01	1.000000e-03	1.975940e+01	2.540000e+02	2.540350e+02	2.390000e+01	1.456531e-12	
2.380337e-01	4.198415e-01	0.000000e+00	2.615792e-04	2.618411e-07	2.034311e+00	4.130789e-12	1.792669e-13	7.960700e+03	4.131144e-04	9.990000e-01	1.000000e-03	1.975940e+01	2.540000e+02	2.540350e+02	2.390000e+01	1.647815e-12	
2.568283e-01	4.266168e-01	0.000000e+00	2.615792e-04	2.618411e-07	2.034311e+00	5.447124e-12	2.362220e-13	7.960700e+03	4.131144e-04	9.990000e-01	1.000000e-03	1.975940e+01	2.540000e+02	2.540350e+02	2.390000e+01	1.907868e-12	
2.782398e-01	4.332141e-01	0.000000e+00	2.615792e-04	2.618411e-07	2.034311e+00	7.668989e-12	3.322267e-13	7.960700e+03	4.131144e-04	9.990000e-01	1.000000e-03	1.975940e+01	2.540000e+02	2.540350e+02	2.390000e+01	2.283815e-12	
3.026409e-01	4.393418e-01	0.000000e+00	2.615792e-04	2.618411e-07	2.034311e+00	1.188936e-11	5.142113e-13	7.960700e+03	4.131144e-04	9.990000e-01	1.000000e-03	1.975940e+01	2.540000e+02	2.540350e+02	2.390000e+01	2.875612e-12	
3.304230e-01	4.446299e-01	0.000000e+00	2.615792e-04	2.618411e-07	2.034311e+00	1.546195e-11	6.678843e-13	7.960700e+03	4.131144e-04	9.990000e-01	1.000000e-03	1.975940e+01	2.540000e+02	2.540350e+02	2.390000e+01	3.275192e-12	
3.615793e-01	4.511073e-01	0.000000e+00	2.615792e-04	2.618411e-07	2.034311e+00	1.597231e-11	6.897388e-13	7.960700e+03	4.131144e-04	9.990000e-01	1.000000e-03	1.975940e+01	2.540000e+02	2.540350e+02	2.390000e+01	3.295142e-12	
3.966550e-01	4.583996e-01	0.000000e+00	2.615792e-04	2.618411e-07	2.034311e+00	1.617766e-11	6.985877e-13	7.960700e+03	4.131144e-04	9.990000e-01	1.000000e-03	1.975940e+01	2.540000e+02	2.540350e+02	2.390000e+01	3.317816e-12	
4.361634e-01	4.666134e-01	0.000000e+00	2.615792e-04	2.618411e-07	2.034311e+00	1.631979e-11	7.047745e-13	7.960700e+03	4.131144e-04	9.990000e-01	1.000000e-03	1.975940e+01	2.540000e+02	2.540350e+02	2.390000e+01	3.342728e-12	
4.806829e-01	4.758690e-01	0.000000e+00	2.615792e-04	2.618411e-07	2.034311e+00	1.646048e-11	7.108890e-13	7.960700e+03	4.131144e-04	9.990000e-01	1.000000e-03	1.975940e+01	2.540000e+02	2.540350e+02	2.390000e+01	3.370713e-12	
5.308651e-01	4.863019e-01	0.000000e+00	2.615792e-04	2.618411e-07	2.034311e+00	1.661479e-11	7.177069e-13	7.960700e+03	4.131144e-04	9.990000e-01	1.000000e-03	1.975940e+01	2.540000e+02	2.540350e+02	2.390000e+01	3.402137e-12	
5.874446e-01	4.980648e-01	0.000000e+00	2.615792e-04	2.618411e-07	2.034311e+00	1.678852e-11	7.253346e-13	7.960700e+03	4.131144e-04	9.990000e-01	1.000000e-03	1.975940e+01	2.540000e+02	2.540350e+02	2.390000e+01	3.437690e-12	
6.512496e-01	5.113299e-01	0.000000e+00	2.615792e-04	2.618411e-07	2.034311e+00	1.698324e-11	7.337575e-13	7.960700e+03	4.131144e-04	9.990000e-01	1.000000e-03	1.975940e+01	2.540000e+02	2.540350e+02	2.390000e+01	3.477508e-12	
7.232141e-01	5.262913e-01	0.000000e+00	2.615792e-04	2.618411e-07	2.034311e+00	1.720347e-11	7.434487e-13	7.960700e+03	4.131144e-04	9.990000e-01	1.000000e-03	1.975940e+01	2.540000e+02	2.540350e+02	2.390000e+01	3.522603e-12	
8.043916e-01	5.431681e-01	0.000000e+00	2.615792e-04	2.618411e-07	2.034311e+00	1.745077e-11	7.542479e-13	7.960700e+03	4.131144e-04	9.990000e-01	1.000000e-03	1.975940e+01	2.540000e+02	2.540350e+02	2.390000e+01	3.573202e-12	
8.959702e-01	5.622074e-01	0.000000e+00	2.615792e-04	2.618411e-07	2.034311e+00	1.773243e-11	7.666359e-13	7.960700e+03	4.131144e-04	9.990000e-01	1.000000e-03	1.975940e+01	2.540000e+02	2.540350e+02	2.390000e+01	3.630913e-12	
9.992905e-01	5.836877e-01	0.000000e+00	2.615792e-04	2.618411e-07	2.034311e+00	1.804818e-11	7.804004e-13	7.960700e+03	4.131144e-04	9.990000e-01	1.000000e-03	1.975940e+01	2.540000e+02	2.540350e+02	2.390000e+01	3.695504e-12	
1.115865e+00	6.079236e-01	0.000000e+00	2.615792e-04	2.618411e-07	2.034311e+00	1.840430e-11	7.959264e-13	7.960700e+03	4.131144e-04	9.990000e-01	1.000000e-03	1.975940e+01	2.540000e+02	2.540350e+02	2.390000e+01	3.768399e-12	
1.247400e+00	6.352697e-01	0.000000e+00	2.615792e-04	2.618411e-07	2.034311e+00	1.866335e-11	8.072406e-13	7.960700e+03	4.131144e-04	9.990000e-01	1.000000e-03	1.975940e+01	2.540000e+02	2.540350e+02	2.390000e+01	3.824042e-12	
1.248144e+00	6.305822e-01	0.000000e+00	2.615792e-04	2.618410e-07	2.034311e+00	5.571108e-11	2.379727e-12	7.960700e+03	4.131144e-04	9.990000e-01	1.000000e-03	1.975940e+01	2.540000e+02	2.540350e+02	2.390000e+01	1.143234e-11	
1.248887e+00	6.258947e-01	0.000000e+00	2.615792e-04	2.618410e-07	2.034311e+00	9.271802e-11	3.920714e-12	7.960700e+03	4.131144e-04	9.990000e-01	1.000000e-03	1.975940e+01	2.540000e+02	2.540350e+02	2.390000e+01	1.903265e-11	
1.249631e+00	6.212072e-01	0.000000e+00	2.615792e-04	2.618410e-07	2.034311e+00	1.297011e-10	5.430883e-12	7.960700e+03	4.131144e-04	9.990000e-01	9.999999e-04	1.975940e+01	2.540000e+02	2.540350e+02	2.390000e+01	2.662656e-11	
1.250375e+00	6.165197e-01	0.000000e+00	2.615792e-04	2.618410e-07	2.034311e+00	1.666687e-10	6.910517e-12	7.960700e+03	4.131144e-04	9.990000e-01	9.999999e-04	1.975940e+01	2.540000e+02	2.540350e+02	2.390000e+01	3.421472e-11	
1.251119e+00	6.118322e-01	0.000000e+00	2.615792e-04	2.618410e-07	2.034311e+00	2.036295e-10	8.359896e-12	7.960700e+03	4.131144e-04	9.990000e-01	9.999999e-04	1.975940e+01	2.540000e+02	2.540350e+02	2.390000e+01	4.179846e-11	
1.251863e+00	6.071447e-01	0.000000e+00	2.615792e-04	2.618410e-07	2.034311e+00	2.405871e-10	9.779268e-12	7.960700e+03	4.131144e-04	9.990000e-01	9.999999e-04	1.975940e+01	2.540000e+02	2.540350e+02	2.390000e+01	4.937843e-11	
1.252606e+00	6.024572e-01	0.000000e+00	2.615792e-04	2.618410e-07	2.034311e+00	2.775428e-10	1.116874e-11	7.960700e+03	4.131144e-04	9.990000e-01	9.999999e-04	1.975940e+01	2.540000e+02	2.540350e+02	2.390000e+01	5.695521e-11	
1.253350e+00	5.977697e-01	0.000000e+00	2.615792e-04	2.618410e-07	2.034311e+00	3.144921e-10	1.252820e-11	7.960700e+03	4.131144e-04	9.990000e-01	9.999999e-04	1.975940e+01	2.540000e+02	2.540350e+02	2.390000e+01	6.452853e-11	
1.254094e+00	5.930822e-01	0.000000e+00	2.615792e-04	2.618410e-07	2.034311e+00	3.514286e-10	1.385718e-11	7.960700e+03	4.131144e-04	9.990000e-01	9.999998e-04	1.975940e+01	2.540000e+02	2.540350e+02	2.390000e+01	7.209831e-11	
1.254838e+00	5.883947e-01	0.000000e+00	2.615792e-04	2.618410e-07	2.034311e+00	3.883426e-10	1.515564e-11	7.960700e+03	4.131144e-04	9.990000e-01	9.999998e-04	1.975940e+01	2.540000e+02	2.540350e+02	2.390000e+01	7.966466e-11	
1.255581e+00	5.837072e-01	0.000000e+00	2.615792e-04	2.618410e-07	2.034311e+00	4.252162e-10	1.642283e-11	7.960700e+03	4.131144e-04	9.990000e-01	9.999998e-04	1.975940e+01	2.540000e+02	2.540350e+02	2.390000e+01	8.722682e-11	
1.256325e+00	5.790197e-01	0.000000e+00	2.615792e-04	2.618410e-07	2.034311e+00	4.620222e-10	1.765785e-11	7.960700e+03	4.131144e-04	9.990000e-01	9.999998e-04	1.975940e+01	2.540000e+02	2.540350e+02	2.390000e+01	9.478326e-11	
1.257069e+00	5.743322e-01	0.000000e+00	2.615792e-04	2.618410e-07	2.034311e+00	4.987278e-10	1.885952e-11	7.960700e+03	4.131144e-04	9.990000e-01	9.999998e-04	1.975940e+01	2.540000e+02	2.540350e+02	2.390000e+01	1.023332e-10	
1.257812e+00	5.696447e-01	0.000000e+00	2.615792e-04	2.618410e-07	2.034311e+00	5.352846e-10	2.002652e-11	7.960700e+03	4.131144e-04	9.990000e-01	9.999998e-04	1.975940e+01	2.540000e+02	2.540350e+02	2.390000e+01	1.098745e-10	
1.258556e+00	5.649572e-01	0.000000e+00	2.615792e-04	2.618410e-07	2.034311e+00	5.716291e-10	2.115655e-11	7.960700e+03	4.131144e-04	9.990000e-01	9.999997e-04	1.975940e+01	2.540000e+02	2.540350e+02	2.390000e+01	1.174041e-10	
1.259300e+00	5.602697e-01	0.000000e+00	2.615792e-04	2.618410e-07	2.034311e+00	6.076856e-10	2.224709e-11	7.960700e+03	4.131144e-04	9.990000e-01	9.999997e-04	1.975940e+01	2.540000e+02	2.540350e+02	2.390000e+01	1.249189e-10	
1.260044e+00	5.555822e-01	0.000000e+00	2.615792e-04	2.618410e-07	2.034311e+00	6.433599e-10	2.329534e-11	7.960700e+03	4.131144e-04	9.990000e-01	9.999997e-04	1.975940e+01	2.540000e+02	2.540350e+02	2.390000e+01	1.324150e-10	
1.260787e+00	5.508947e-01	0.000000e+00	2.615792e-04	2.618410e-07	2.034311e+00	6.785409e-10	2.429779e-11	7.960700e+03	4.131144e-04	9.990000e-01	9.999997e-04	1.975940e+01	2.540000e+02	2.540350e+02	2.390000e+01	1.398872e-10	
1.261531e+00	5.462072e-01	0.000000e+00	2.615792e-04	2.618410e-07	2.034311e+00	7.131021e-10	2.525085e-11	7.960700e+03	4.131144e-04	9.990000e-01	9.999997e-04	1.975940e+01	2.540000e+02	2.540350e+02	2.390000e+01	1.473302e-10	
1.262275e+00	5.415197e-01	0.000000e+00	2.615792e-04	2.618410e-07	2.034311e+00	7.469015e-10	2.615049e-11	7.960700e+03	4.131144e-04	9.990000e-01	9.999997e-04	1.975940e+01	2.540000e+02	2.540350e+02	2.390000e+01	1.547377e-10	
1.263019e+00	5.368322e-01	0.000000e+00	2.615792e-04	2.618410e-07	2.034311e+00	7.797825e-10	2.699230e-11	7.960700e+03	4.131144e-04	9.990000e-01	9.999996e-04	1.975940e+01	2.540000e+02	2.540350e+02	2.390000e+01	1.621026e-10	
1.263762e+00	5.321447e-01	0.000000e+00	2.615792e-04	2.618410e-07	2.034311e+00	8.115796e-10	2.777212e-11	7.960700e+03	4.131144e-04	9.990000e-01	9.999996e-04	1.975940e+01	2.540000e+02	2.540350e+02	2.390000e+01	1.694171e-10	
1.264506e+00	5.274572e-01	0.000000e+00	2.615792e-04	2.618410e-07	2.034311e+00	8.421202e-10	2.848572e-11	7.960700e+03	4.131144e-04	9.990000e-01	9.999996e-04	1.975940e+01	2.540000e+02	2.540350e+02	2.390000e+01	1.766734e-10	
1.265250e+00	5.227697e-01	0.000000e+00	2.615792e-04	2.618410e-07	2.034311e+00	8.712265e-10	2.912865e-11	7.960700e+03	4.131144e-04	9.990000e-01	9.999996e-04	1.975940e+01	2.540000e+02	2.540350e+02	2.390000e+01	1.838628e-10	
1.265994e+00	5.180822e-01	0.000000e+00	2.615792e-04	2.618409e-07	2.034311e+00	8.987260e-10	2.969762e-11	7.960700e+03	4.131144e-04	9.990000e-01	9.999996e-04	1.975940e+01	2.540000e+02	2.540350e+02	2.390000e+01	1.909770e-10	
1.266738e+00	5.133947e-01	0.000000e+00	2.615792e-04	2.618409e-07	2.034311e+00	9.244495e-10	3.018923e-11	7.960700e+03	4.131144e-04	9.990000e-01	9.999996e-04	1.975940e+01	2.540000e+02	2.540350e+02	2.390000e+01	1.980075e-10	
1.267481e+00	5.087072e-01	0.000000e+00	2.615795e-04	2.618412e-07	2.034313e+00	5.604399e-05	-1.239930e-03	7.960709e+03	4.131148e-04	9.990000e-01	9.999996e-04	1.975827e+01	2.539852e+02	2.540350e+02	2.390070e+01	-1.428494e-07	
1.268225e+00	5.040197e-01	0.000000e+00	2.743996e-04	2.746741e-07	2.132119e+00	1.080250e-02	-1.974296e-02	8.346990e+03	4.351797e-04	9.990000e-01	9.999995e-04	2.470076e+01	3.026844e+02	2.541112e+02	2.187550e+01	6.252870e-04	
1.268969e+00	4.993322e-01	0.000000e+00	6.598336e-04	6.604937e-07	5.034227e+00	5.190111e-01	-4.459610e-02	1.992763e+04	1.066550e-03	9.990000e-01	9.999994e-04	2.060842e+02	1.050203e+03	2.544544e+02	1.159245e+01	2.357782e-02	
1.269713e+00	4.946447e-01	0.000000e+00	1.261249e-03	1.262510e-06	9.537911e+00	1.422342e+00	-1.084821e-02	3.802310e+04	2.628027e-03	9.990000e-01	9.999988e-04	4.609005e+02	1.228767e+03	2.593722e+02	1.068304e+01	5.582268e-02	
1.270456e+00	4.899572e-01	0.000000e+00	1.086613e-03	1.087699e-06	8.225792e+00	1.163052e+00	7.347773e-03	3.275700e+04	3.071743e-03	9.990000e-01	9.999986e-04	3.981715e+02	1.232135e+03	2.655672e+02	1.066775e+01	4.788486e-02	
1.271200e+00	4.852697e-01	0.000000e+00	1.017699e-03	1.018721e-06	7.703352e+00	1.072903e+00	1.664014e-02	3.067290e+04	5.668213e-03	9.990000e-01	1.000003e-03	3.794644e+02	1.253761e+03	2.804448e+02	1.057125e+01	4.551763e-02	
1.271944e+00	4.805822e-01	0.000000e+00	9.492094e-04	9.501858e-07	7.183463e+00	9.855775e-01	1.995769e-02	2.860096e+04	1.661117e-02	9.990000e-01	1.000028e-03	3.615642e+02	1.280816e+03	3.097377e+02	1.045395e+01	4.325252e-02	
1.272687e+00	4.758947e-01	0.000000e+00	8.827671e-04	8.837926e-07	6.677591e+00	9.046343e-01	2.005095e-02	2.658888e+04	7.596513e-02	9.989998e-01	1.000160e-03	3.463341e+02	1.319205e+03	3.623940e+02	1.029365e+01	4.132527e-02	
1.273431e+00	4.712072e-01	0.000000e+00	8.197571e-04	8.210627e-07	6.196008e+00	8.318676e-01	1.871455e-02	2.467803e+04	2.606879e-01	9.989994e-01	1.000590e-03	3.346508e+02	1.372680e+03	4.211442e+02	1.008146e+01	3.984685e-02	
1.274175e+00	4.665197e-01	0.000000e+00	7.586731e-04	7.606636e-07	5.727609e+00	7.643785e-01	1.674013e-02	2.282330e+04	6.724561e-01	9.989984e-01	1.001619e-03	3.256777e+02	1.443428e+03	4.824578e+02	9.818744e+00	3.871138e-02	
1.274919e+00	4.618322e-01	0.000000e+00	6.997119e-04	7.029973e-07	5.274192e+00	7.015918e-01	1.462262e-02	2.103110e+04	1.429739e+00	9.989963e-01	1.003687e-03	3.190252e+02	1.533083e+03	5.473317e+02	9.511794e+00	3.786956e-02	
1.275662e+00	4.571447e-01	0.000000e+00	6.431695e-04	6.485930e-07	4.838395e+00	6.429572e-01	1.260505e-02	1.931101e+04	2.659315e+00	9.989926e-01	1.007417e-03	3.141462e+02	1.642340e+03	6.172669e+02	9.171541e+00	3.725217e-02	
1.276406e+00	4.524572e-01	0.000000e+00	5.898176e-04	5.984908e-07	4.426479e+00	5.886095e-01	1.080982e-02	1.768704e+04	4.488768e+00	9.989863e-01	1.013676e-03	3.105708e+02	1.770493e+03	6.937950e+02	8.812357e+00	3.679973e-02	
1.277150e+00	4.477697e-01	0.000000e+00	5.406460e-04	5.540498e-07	4.046307e+00	5.391237e-01	9.284323e-03	1.618975e+04	7.068125e+00	9.989763e-01	1.023743e-03	3.079554e+02	1.915214e+03	7.790848e+02	8.449742e+00	3.646877e-02	
1.277894e+00	4.430822e-01	0.000000e+00	4.963026e-04	5.164696e-07	3.703039e+00	4.948666e-01	8.017915e-03	1.483918e+04	1.059581e+01	9.989604e-01	1.039553e-03	3.060209e+02	2.073163e+03	8.760588e+02	8.096788e+00	3.622398e-02	
1.278638e+00	4.383947e-01	0.000000e+00	4.569267e-04	4.867501e-07	3.397831e+00	4.558025e-01	6.972179e-03	1.363980e+04	1.535093e+01	9.989359e-01	1.064136e-03	3.045725e+02	2.241051e+03	9.887117e+02	7.761736e+00	3.604069e-02	
1.279381e+00	4.337072e-01	0.000000e+00	4.221242e-04	4.659163e-07	3.127666e+00	4.214156e-01	6.096184e-03	1.257976e+04	2.173747e+01	9.988975e-01	1.102525e-03	3.034621e+02	2.416787e+03	1.122789e+03	7.447275e+00	3.590018e-02	
1.280125e+00	4.290197e-01	0.000000e+00	3.912206e-04	4.555501e-07	2.887300e+00	3.909510e-01	5.344202e-03	1.163863e+04	3.028821e+01	9.988369e-01	1.163078e-03	3.026035e+02	2.600002e+03	1.285910e+03	7.151802e+00	3.579153e-02	
1.280869e+00	4.243322e-01	0.000000e+00	3.634498e-04	4.584557e-07	2.670754e+00	3.635785e-01	4.680043e-03	1.079322e+04	4.163520e+01	9.987402e-01	1.259811e-03	3.019362e+02	2.791955e+03	1.487738e+03	6.871347e+00	3.570709e-02	
1.281613e+00	4.196447e-01	0.000000e+00	3.381744e-04	4.796124e-07	2.473029e+00	3.386185e-01	4.080291e-03	1.002428e+04	5.643334e+01	9.985838e-01	1.416231e-03	3.014351e+02	2.994710e+03	1.739809e+03	6.601673e+00	3.564368e-02	
1.282356e+00	4.149572e-01	0.000000e+00	3.149684e-04	5.274689e-07	2.290780e+00	3.156180e-01	3.532672e-03	9.319081e+03	7.522564e+01	9.983281e-01	1.671872e-03	3.010813e+02	3.209935e+03	2.054705e+03	6.339887e+00	3.559891e-02	
1.283100e+00	4.102697e-01	0.000000e+00	2.936680e-04	6.160480e-07	2.122732e+00	2.944124e-01	3.033646e-03	8.673055e+03	9.830106e+01	9.979066e-01	2.093379e-03	3.008682e+02	3.437424e+03	2.444446e+03	6.085465e+00	3.557194e-02	
1.283844e+00	4.055822e-01	0.000000e+00	2.743178e-04	7.684223e-07	1.969312e+00	2.750707e-01	2.584898e-03	8.088289e+03	1.256014e+02	9.972066e-01	2.793387e-03	3.007839e+02	3.673720e+03	2.918187e+03	5.840452e+00	3.556127e-02	
1.284587e+00	4.008947e-01	0.000000e+00	2.570590e-04	1.022008e-06	1.831788e+00	2.577802e-01	2.188660e-03	7.570261e+03	1.567463e+02	9.960400e-01	3.960029e-03	3.008124e+02	3.911606e+03	3.480034e+03	5.608513e+00	3.556489e-02	
1.285331e+00	3.962072e-01	0.000000e+00	2.419310e-04	1.439930e-06	1.710762e+00	2.426327e-01	1.842437e-03	7.122153e+03	1.912052e+02	9.940834e-01	5.916607e-03	3.009195e+02	4.141440e+03	4.129228e+03	5.392594e+00	3.557844e-02	
1.286075e+00	3.915197e-01	0.000000e+00	2.287582e-04	2.132199e-06	1.605325e+00	2.295119e-01	1.536564e-03	6.742009e+03	2.284152e+02	9.907653e-01	9.234679e-03	3.010666e+02	4.353076e+03	4.861043e+03	5.192801e+00	3.559705e-02	
1.286819e+00	3.868322e-01	0.000000e+00	2.172068e-04	3.266692e-06	1.513560e+00	2.181664e-01	1.260641e-03	6.424829e+03	2.675230e+02	9.851833e-01	1.481671e-02	3.012271e+02	4.536092e+03	5.661059e+03	5.006612e+00	3.561736e-02	
1.287562e+00	3.821447e-01	0.000000e+00	2.069382e-04	5.066253e-06	1.433723e+00	2.083730e-01	1.006570e-03	6.167130e+03	3.071525e+02	9.761031e-01	2.389691e-02	3.013980e+02	4.678115e+03	6.494809e+03	4.830815e+00	3.563899e-02	
1.288306e+00	3.774572e-01	0.000000e+00	1.977186e-04	7.796281e-06	1.365010e+00	2.000494e-01	7.701044e-04	5.969949e+03	3.456172e+02	9.620646e-01	3.793536e-02	3.015679e+02	4.763249e+03	7.303566e+03	4.663497e+00	3.566048e-02	
1.289050e+00	3.727697e-01	0.000000e+00	1.894990e-04	1.175016e-05	1.307962e+00	1.933033e-01	5.490855e-04	5.840775e+03	3.816368e+02	9.416139e-01	5.838612e-02	3.017694e+02	4.773412e+03	8.019041e+03	4.504771e+00	3.568599e-02	
1.289794e+00	3.680822e-01	0.000000e+00	1.822368e-04	1.721585e-05	1.262959e+00	1.882384e-01	3.437957e-04	5.787266e+03	4.145478e+02	9.136845e-01	8.631546e-02	3.019240e+02	4.694979e+03	8.590783e+03	4.355685e+00	3.570555e-02	
1.290537e+00	3.633947e-01	0.000000e+00	1.759848e-04	2.446786e-05	1.230635e+00	1.849620e-01	1.480117e-04	5.819402e+03	4.446461e+02	8.779370e-01	1.220630e-01	3.021767e+02	4.526512e+03	9.001683e+03	4.216425e+00	3.573753e-02	
1.291281e+00	3.587072e-01	0.000000e+00	1.704058e-04	3.372729e-05	1.208502e+00	1.831958e-01	-4.354883e-05	5.934230e+03	4.717422e+02	8.347780e-01	1.652220e-01	3.021928e+02	4.280493e+03	9.260023e+03	4.085274e+00	3.573957e-02	
1.292025e+00	3.540197e-01	0.000000e+00	1.655022e-04	4.535309e-05	1.196309e+00	1.828504e-01	-2.513372e-04	6.142688e+03	4.965130e+02	7.849089e-01	2.150911e-01	3.025857e+02	3.979119e+03	9.382377e+03	3.957090e+00	3.578928e-02	
1.292769e+00	3.493322e-01	0.000000e+00	1.603421e-04	5.964283e-05	1.187388e+00	1.831152e-01	-4.604445e-04	6.427614e+03	5.162264e+02	7.288776e-01	2.711224e-01	3.022359e+02	3.641645e+03	9.379543e+03	3.827010e+00	3.574501e-02	
1.293513e+00	3.446447e-01	0.000000e+00	1.551941e-04	7.764754e-05	1.184373e+00	1.841489e-01	-7.449139e-04	6.830416e+03	5.303159e+02	6.665222e-01	3.334778e-01	3.030773e+02	3.288809e+03	9.246243e+03	3.683978e+00	3.585149e-02	
1.294256e+00	3.399572e-01	0.000000e+00	1.484609e-04	1.007111e-04	1.179864e+00	1.852487e-01	-9.908077e-04	7.357516e+03	5.301584e+02	5.958169e-01	4.041831e-01	3.020236e+02	2.908371e+03	8.954308e+03	3.531640e+00	3.571815e-02	
1.295000e+00	3.352697e-01	0.000000e+00	1.411576e-04	1.265284e-04	1.193638e+00	1.889832e-01	-1.339454e-03	8.071285e+03	5.275625e+02	5.273253e-01	4.726747e-01	3.037455e+02	2.596027e+03	8.665451e+03	3.417244e+00	3.593604e-02	
1.161892e+00	3.141876e-01	0.000000e+00	1.424147e-04	1.288033e-04	1.204484e+00	1.907073e-01	-1.430157e-03	8.172402e+03	5.315211e+02	5.250932e-01	4.749068e-01	3.079014e+02	2.593345e+03	8.643801e+03	3.401915e+00	3.646193e-02	
1.043936e+00	2.955052e-01	0.000000e+00	1.452020e-04	1.334849e-04	1.228168e+00	1.944698e-01	-1.608495e-03	8.387110e+03	5.405087e+02	5.210219e-01	4.789781e-01	3.171179e+02	2.592234e+03	8.604184e+03	3.370732e+00	3.762821e-02	
9.394022e-01	2.789486e-01	0.000000e+00	1.483289e-04	1.381424e-04	1.253812e+00	1.985433e-01	-1.776445e-03	8.610338e+03	5.505865e+02	5.177792e-01	4.822208e-01	3.274447e+02	2.598218e+03	8.569762e+03	3.339157e+00	3.893497e-02	
8.467574e-01	2.642751e-01	0.000000e+00	1.518742e-04	1.428779e-04	1.282043e+00	2.030317e-01	-1.933260e-03	8.847391e+03	5.621185e+02	5.152608e-01	4.847392e-01	3.391795e+02	2.611285e+03	8.540377e+03	3.306588e+00	4.041991e-02	
7.646435e-01	2.512695e-01	0.000000e+00	1.559681e-04	1.478284e-04	1.313844e+00	2.080917e-01	-2.074404e-03	9.106018e+03	5.756321e+02	5.133967e-01	4.866033e-01	3.528069e+02	2.632031e+03	8.515908e+03	3.272171e+00	4.214435e-02	
6.918563e-01	2.397412e-01	0.000000e+00	1.606726e-04	1.530799e-04	1.349678e+00	2.137951e-01	-2.198571e-03	9.390486e+03	5.913926e+02	5.121000e-01	4.879000e-01	3.686121e+02	2.660360e+03	8.496043e+03	3.235615e+00	4.414436e-02	