TITLE = "Visualization of the solution"
VARIABLES = "x","y","Density_N2","Density_O2","Density_NO","Density_N","Density_O","Momentum_x","Momentum_y","Energy","Energy_ve","Pressure","Temperature","Temperature_ve","Mach"
ZONE NODES= 120, ELEMENTS= 92, DATAPACKING=POINT, ZONETYPE=FEQUADRILATERAL
0.000000e+00	0.000000e+00	9.774207e-01	2.919568e-01	1.089950e-42	5.087832e-43	1.902025e-26	2.164145e+03	3.284487e-01	2.112710e+06	7.925104e+01	1.071275e+05	2.927282e+02	2.881501e+02	4.959941e+00	
-5.000000e-02	0.000000e+00	9.391674e-01	2.805305e-01	4.146910e-43	1.935757e-43	1.010208e-26	2.079785e+03	0.000000e+00	2.026576e+06	7.614933e+01	1.013250e+05	2.881500e+02	2.881500e+02	5.000000e+00	
9.848077e-01	1.736484e-01	1.005132e+00	3.002342e-01	1.269050e-41	5.923861e-42	6.850201e-26	2.225973e+03	5.269355e-01	2.176384e+06	8.149825e+01	1.113535e+05	2.958869e+02	2.881501e+02	4.934440e+00	
9.848077e-01	5.209451e-01	9.391674e-01	2.805305e-01	8.105497e-42	3.783606e-42	5.065299e-26	2.079785e+03	-3.369558e-14	2.026576e+06	7.614933e+01	1.013250e+05	2.881500e+02	2.881500e+02	5.000000e+00	
0.000000e+00	1.000000e-01	9.391674e-01	2.805305e-01	1.206060e-42	5.629829e-43	1.896887e-26	2.079785e+03	-1.317455e-14	2.026576e+06	7.614933e+01	1.013250e+05	2.881500e+02	2.881500e+02	5.000000e+00	
-5.000000e-02	1.000000e-01	9.391674e-01	2.805305e-01	3.489253e-43	1.628766e-43	9.190085e-27	2.079785e+03	-9.509325e-16	2.026576e+06	7.614933e+01	1.013250e+05	2.881500e+02	2.881500e+02	5.000000e+00	
-3.478117e-02	0.000000e+00	9.391674e-01	2.805305e-01	1.235246e-42	5.766069e-43	1.951902e-26	2.079785e+03	1.996215e-15	2.026576e+06	7.614933e+01	1.013250e+05	2.881500e+02	2.881500e+02	5.000000e+00	
-2.154078e-02	0.000000e+00	9.391674e-01	2.805305e-01	9.859992e-43	4.602596e-43	1.816692e-26	2.079785e+03	0.000000e+00	2.026576e+06	7.614933e+01	1.013250e+05	2.881500e+02	2.881500e+02	5.000000e+00	
-1.002165e-02	0.000000e+00	9.391674e-01	2.805305e-01	7.839269e-43	3.659332e-43	1.610286e-26	2.079785e+03	-2.079131e-15	2.026576e+06	7.614933e+01	1.013250e+05	2.881500e+02	2.881500e+02	5.000000e+00	
1.924991e-02	3.394282e-03	1.009281e+00	3.014734e-01	1.596273e-42	7.451325e-43	2.349211e-26	2.234734e+03	7.271145e-01	2.185104e+06	8.183438e+01	1.119991e+05	2.963791e+02	2.881501e+02	4.929400e+00	
4.042480e-02	7.127992e-03	1.012212e+00	3.023490e-01	1.861694e-42	8.690297e-43	2.546906e-26	2.241380e+03	7.431989e-01	2.192016e+06	8.207208e+01	1.124445e+05	2.966961e+02	2.881501e+02	4.927107e+00	
6.371719e-02	1.123507e-02	1.013356e+00	3.026906e-01	2.175735e-42	1.015622e-42	2.759661e-26	2.243906e+03	7.653102e-01	2.194602e+06	8.216483e+01	1.126201e+05	2.968240e+02	2.881501e+02	4.926031e+00	
8.933882e-02	1.575286e-02	1.014574e+00	3.030545e-01	2.547887e-42	1.189341e-42	2.988129e-26	2.246599e+03	7.882432e-01	2.197362e+06	8.226361e+01	1.128070e+05	2.969597e+02	2.881501e+02	4.924895e+00	
1.175226e-01	2.072243e-02	1.015835e+00	3.034312e-01	2.989688e-42	1.395572e-42	3.238900e-26	2.249387e+03	8.123591e-01	2.200219e+06	8.236590e+01	1.130006e+05	2.971000e+02	2.881501e+02	4.923723e+00	
1.485248e-01	2.618895e-02	1.017142e+00	3.038218e-01	3.514987e-42	1.640779e-42	3.514324e-26	2.252277e+03	8.377537e-01	2.203181e+06	8.247194e+01	1.132014e+05	2.972453e+02	2.881501e+02	4.922509e+00	
1.826272e-01	3.220213e-02	1.018498e+00	3.042266e-01	4.140414e-42	1.932725e-42	3.816959e-26	2.255274e+03	8.645074e-01	2.206252e+06	8.258187e+01	1.134095e+05	2.973956e+02	2.881501e+02	4.921254e+00	
2.201398e-01	3.881663e-02	1.019903e+00	3.046463e-01	4.885941e-42	2.280733e-42	4.149599e-26	2.258379e+03	8.926872e-01	2.209435e+06	8.269581e+01	1.136254e+05	2.975511e+02	2.881501e+02	4.919956e+00	
2.614037e-01	4.609257e-02	1.021357e+00	3.050808e-01	5.775547e-42	2.695997e-42	4.515294e-26	2.261595e+03	9.223486e-01	2.212730e+06	8.281379e+01	1.138489e+05	2.977119e+02	2.881501e+02	4.918616e+00	
3.067939e-01	5.409611e-02	1.022862e+00	3.055302e-01	6.838021e-42	3.191955e-42	4.917373e-26	2.264920e+03	9.535374e-01	2.216139e+06	8.293582e+01	1.140802e+05	2.978779e+02	2.881501e+02	4.917232e+00	
3.567232e-01	6.290000e-02	1.024416e+00	3.059943e-01	8.107910e-42	3.784733e-42	5.359469e-26	2.268355e+03	9.862893e-01	2.219659e+06	8.306186e+01	1.143191e+05	2.980490e+02	2.881502e+02	4.915807e+00	
4.116455e-01	7.258429e-02	1.026018e+00	3.064729e-01	9.626637e-42	4.493667e-42	5.845539e-26	2.271897e+03	1.020630e+00	2.223289e+06	8.319182e+01	1.145656e+05	2.982251e+02	2.881502e+02	4.914342e+00	
4.720599e-01	8.323700e-02	1.027667e+00	3.069655e-01	1.144383e-41	5.341922e-42	6.379890e-26	2.275542e+03	1.056554e+00	2.227025e+06	8.332559e+01	1.148193e+05	2.984060e+02	2.881502e+02	4.912838e+00	
5.385158e-01	9.495498e-02	1.029361e+00	3.074714e-01	1.361886e-41	6.357218e-42	6.967196e-26	2.279285e+03	1.093903e+00	2.230863e+06	8.346299e+01	1.150800e+05	2.985914e+02	2.881503e+02	4.911298e+00	
6.116173e-01	1.078448e-01	1.031097e+00	3.079899e-01	1.622270e-41	7.572679e-42	7.612518e-26	2.283122e+03	1.132630e+00	2.234796e+06	8.360380e+01	1.153472e+05	2.987809e+02	2.881503e+02	4.909725e+00	
6.920289e-01	1.220235e-01	1.032871e+00	3.085200e-01	1.933999e-41	9.027812e-42	8.321320e-26	2.287044e+03	1.172703e+00	2.238817e+06	8.374778e+01	1.156205e+05	2.989742e+02	2.881504e+02	4.908122e+00	
7.804817e-01	1.376201e-01	1.034737e+00	3.090772e-01	2.307149e-41	1.076966e-41	9.121979e-26	2.291172e+03	1.213848e+00	2.243052e+06	8.389913e+01	1.159077e+05	2.991765e+02	2.881504e+02	4.906457e+00	
8.777798e-01	1.547764e-01	1.036530e+00	3.096128e-01	2.753911e-41	1.285512e-41	9.957147e-26	2.295130e+03	1.257317e+00	2.247107e+06	8.404461e+01	1.161842e+05	2.993713e+02	2.881504e+02	4.904835e+00	
9.848077e-01	2.560449e-01	9.391681e-01	2.805307e-01	1.577963e-41	7.365852e-42	7.500859e-26	2.079787e+03	6.472980e-04	2.026578e+06	7.614938e+01	1.013252e+05	2.881503e+02	2.881500e+02	4.999997e+00	
9.848077e-01	3.413253e-01	9.391674e-01	2.805305e-01	1.432121e-41	6.685068e-42	7.078210e-26	2.079785e+03	2.092710e-15	2.026576e+06	7.614933e+01	1.013250e+05	2.881500e+02	2.881500e+02	5.000000e+00	
9.848077e-01	4.295906e-01	9.391674e-01	2.805305e-01	1.293665e-41	6.038764e-42	6.700229e-26	2.079785e+03	-7.826230e-15	2.026576e+06	7.614933e+01	1.013250e+05	2.881500e+02	2.881500e+02	5.000000e+00	
8.926626e-01	4.815587e-01	9.391674e-01	2.805305e-01	1.595524e-41	7.447827e-42	6.811700e-26	2.079785e+03	-8.660248e-14	2.026576e+06	7.614933e+01	1.013250e+05	2.881500e+02	2.881500e+02	5.000000e+00	
8.069677e-01	4.449294e-01	9.391674e-01	2.805305e-01	1.346588e-41	6.285809e-42	6.228783e-26	2.079785e+03	-8.732298e-14	2.026576e+06	7.614933e+01	1.013250e+05	2.881500e+02	2.881500e+02	5.000000e+00	
7.272714e-01	4.108641e-01	9.391674e-01	2.805305e-01	1.139690e-41	5.320016e-42	5.733110e-26	2.079785e+03	-6.792427e-14	2.026576e+06	7.614933e+01	1.013250e+05	2.881500e+02	2.881500e+02	5.000000e+00	
6.531538e-01	3.791833e-01	9.391674e-01	2.805305e-01	9.675250e-42	4.516359e-42	5.284937e-26	2.079785e+03	-6.660380e-14	2.026576e+06	7.614933e+01	1.013250e+05	2.881500e+02	2.881500e+02	5.000000e+00	
5.842245e-01	3.497203e-01	9.391674e-01	2.805305e-01	8.240649e-42	3.846694e-42	4.879786e-26	2.079785e+03	-5.344422e-14	2.026576e+06	7.614933e+01	1.013250e+05	2.881500e+02	2.881500e+02	5.000000e+00	
5.201202e-01	3.223196e-01	9.391674e-01	2.805305e-01	7.043370e-42	3.287810e-42	4.513572e-26	2.079785e+03	-5.545841e-14	2.026576e+06	7.614933e+01	1.013250e+05	2.881500e+02	2.881500e+02	5.000000e+00	
4.605032e-01	2.968370e-01	9.391674e-01	2.805305e-01	6.042425e-42	2.820574e-42	4.182577e-26	2.079785e+03	-5.750564e-14	2.026576e+06	7.614933e+01	1.013250e+05	2.881500e+02	2.881500e+02	5.000000e+00	
4.050594e-01	2.731381e-01	9.391674e-01	2.805305e-01	5.204042e-42	2.429221e-42	3.883419e-26	2.079785e+03	-4.170696e-14	2.026576e+06	7.614933e+01	1.013250e+05	2.881500e+02	2.881500e+02	5.000000e+00	
3.534967e-01	2.510982e-01	9.391674e-01	2.805305e-01	4.500395e-42	2.100762e-42	3.613031e-26	2.079785e+03	-4.466473e-14	2.026576e+06	7.614933e+01	1.013250e+05	2.881500e+02	2.881500e+02	5.000000e+00	
3.055434e-01	2.306011e-01	9.391674e-01	2.805305e-01	3.908551e-42	1.824492e-42	3.368628e-26	2.079785e+03	-4.556717e-14	2.026576e+06	7.614933e+01	1.013250e+05	2.881500e+02	2.881500e+02	5.000000e+00	
2.609468e-01	2.115388e-01	9.391674e-01	2.805305e-01	3.409603e-42	1.591586e-42	3.147691e-26	2.079785e+03	-3.906086e-14	2.026576e+06	7.614933e+01	1.013250e+05	2.881500e+02	2.881500e+02	5.000000e+00	
2.194719e-01	1.938108e-01	9.391674e-01	2.805305e-01	2.987953e-42	1.394762e-42	2.947934e-26	2.079785e+03	-3.663306e-14	2.026576e+06	7.614933e+01	1.013250e+05	2.881500e+02	2.881500e+02	5.000000e+00	
1.809003e-01	1.773238e-01	9.391674e-01	2.805305e-01	2.630717e-42	1.228006e-42	2.767287e-26	2.079785e+03	-2.945638e-14	2.026576e+06	7.614933e+01	1.013250e+05	2.881500e+02	2.881500e+02	5.000000e+00	
1.450287e-01	1.619909e-01	9.391674e-01	2.805305e-01	2.327242e-42	1.086345e-42	2.603871e-26	2.079785e+03	-3.158934e-14	2.026576e+06	7.614933e+01	1.013250e+05	2.881500e+02	2.881500e+02	5.000000e+00	
1.116682e-01	1.477313e-01	9.391674e-01	2.805305e-01	2.068704e-42	9.656607e-43	2.455981e-26	2.079785e+03	-3.711229e-14	2.026576e+06	7.614933e+01	1.013250e+05	2.881500e+02	2.881500e+02	5.000000e+00	
8.064282e-02	1.344699e-01	9.391674e-01	2.805305e-01	1.847782e-42	8.625357e-43	2.322063e-26	2.079785e+03	-3.462444e-14	2.026576e+06	7.614933e+01	1.013250e+05	2.881500e+02	2.881500e+02	5.000000e+00	
5.178926e-02	1.221367e-01	9.391674e-01	2.805305e-01	1.658389e-42	7.741278e-43	2.202351e-26	2.079785e+03	-3.158201e-14	2.026576e+06	7.614933e+01	1.013250e+05	2.881500e+02	2.881500e+02	5.000000e+00	
2.495545e-02	1.106669e-01	9.391674e-01	2.805305e-01	1.495447e-42	6.980673e-43	2.087226e-26	2.079785e+03	-1.794410e-14	2.026576e+06	7.614933e+01	1.013250e+05	2.881500e+02	2.881500e+02	5.000000e+00	
-1.160059e-02	1.000000e-01	9.391674e-01	2.805305e-01	9.489130e-43	4.429479e-43	1.753124e-26	2.079785e+03	-7.193653e-15	2.026576e+06	7.614933e+01	1.013250e+05	2.881500e+02	2.881500e+02	5.000000e+00	
-2.378121e-02	1.000000e-01	9.391674e-01	2.805305e-01	1.043377e-42	4.870434e-43	1.866124e-26	2.079785e+03	-8.928095e-15	2.026576e+06	7.614933e+01	1.013250e+05	2.881500e+02	2.881500e+02	5.000000e+00	
-3.657087e-02	1.000000e-01	9.391674e-01	2.805305e-01	1.147514e-42	5.356537e-43	1.872029e-26	2.079785e+03	3.544435e-15	2.026576e+06	7.614933e+01	1.013250e+05	2.881500e+02	2.881500e+02	5.000000e+00	
-5.000000e-02	7.304491e-02	9.391674e-01	2.805305e-01	3.959583e-43	1.848314e-43	9.707926e-27	2.079785e+03	-5.061943e-16	2.026576e+06	7.614933e+01	1.013250e+05	2.881500e+02	2.881500e+02	5.000000e+00	
-5.000000e-02	4.743758e-02	9.391674e-01	2.805305e-01	4.194061e-43	1.957767e-43	1.001169e-26	2.079785e+03	0.000000e+00	2.026576e+06	7.614933e+01	1.013250e+05	2.881500e+02	2.881500e+02	5.000000e+00	
-5.000000e-02	2.311062e-02	9.391674e-01	2.805305e-01	4.418083e-43	2.062339e-43	1.029549e-26	2.079785e+03	5.566653e-16	2.026576e+06	7.614933e+01	1.013250e+05	2.881500e+02	2.881500e+02	5.000000e+00	
0.000000e+00	7.304491e-02	9.391674e-01	2.805305e-01	1.689078e-42	7.884535e-43	2.268359e-26	2.079785e+03	-2.782131e-15	2.026576e+06	7.614933e+01	1.013250e+05	2.881500e+02	2.881500e+02	5.000000e+00	
0.000000e+00	4.743758e-02	9.391674e-01	2.805305e-01	1.575387e-42	7.353830e-43	2.194466e-26	2.079785e+03	-7.912098e-15	2.026576e+06	7.614933e+01	1.013250e+05	2.881500e+02	2.881500e+02	5.000000e+00	
0.000000e+00	2.311062e-02	9.391768e-01	2.805333e-01	1.472203e-42	6.872174e-43	2.145899e-26	2.079803e+03	1.992172e-02	2.026597e+06	7.615009e+01	1.013283e+05	2.881566e+02	2.881500e+02	4.999936e+00	
2.060355e-02	2.824235e-02	9.391674e-01	2.805305e-01	2.318142e-42	1.082097e-42	2.697880e-26	2.079785e+03	1.648300e-14	2.026576e+06	7.614933e+01	1.013250e+05	2.881500e+02	2.881500e+02	5.000000e+00	
2.200458e-02	5.435962e-02	9.391674e-01	2.805305e-01	2.412013e-42	1.125916e-42	2.772398e-26	2.079785e+03	0.000000e+00	2.026576e+06	7.614933e+01	1.013250e+05	2.881500e+02	2.881500e+02	5.000000e+00	
2.345463e-02	8.181153e-02	9.391674e-01	2.805305e-01	2.522553e-42	1.177516e-42	2.822519e-26	2.079785e+03	-1.107386e-14	2.026576e+06	7.614933e+01	1.013250e+05	2.881500e+02	2.881500e+02	5.000000e+00	
4.312103e-02	3.382468e-02	9.391674e-01	2.805305e-01	2.683129e-42	1.252471e-42	2.931823e-26	2.079785e+03	1.681836e-14	2.026576e+06	7.614933e+01	1.013250e+05	2.881500e+02	2.881500e+02	5.000000e+00	
4.591163e-02	6.184650e-02	9.391674e-01	2.805305e-01	2.747772e-42	1.282646e-42	2.979136e-26	2.079785e+03	-1.401666e-15	2.026576e+06	7.614933e+01	1.013250e+05	2.881500e+02	2.881500e+02	5.000000e+00	
4.879990e-02	9.126039e-02	9.391674e-01	2.805305e-01	2.831269e-42	1.321622e-42	3.008360e-26	2.079785e+03	1.289447e-15	2.026576e+06	7.614933e+01	1.013250e+05	2.881500e+02	2.881500e+02	5.000000e+00	
6.773282e-02	3.989793e-02	9.391674e-01	2.805305e-01	3.115421e-42	1.454263e-42	3.158439e-26	2.079785e+03	1.844243e-14	2.026576e+06	7.614933e+01	1.013250e+05	2.881500e+02	2.881500e+02	5.000000e+00	
7.188899e-02	6.994510e-02	9.391674e-01	2.805305e-01	3.143008e-42	1.467141e-42	3.177708e-26	2.079785e+03	5.916457e-31	2.026576e+06	7.614933e+01	1.013250e+05	2.881500e+02	2.881500e+02	5.000000e+00	
7.619063e-02	1.014451e-01	9.391674e-01	2.805305e-01	3.192388e-42	1.490191e-42	3.186135e-26	2.079785e+03	1.201362e-15	2.026576e+06	7.614933e+01	1.013250e+05	2.881500e+02	2.881500e+02	5.000000e+00	
9.463648e-02	4.650615e-02	9.391674e-01	2.805305e-01	3.628887e-42	1.693947e-42	3.408022e-26	2.079785e+03	1.053418e-14	2.026576e+06	7.614933e+01	1.013250e+05	2.881500e+02	2.881500e+02	5.000000e+00	
1.001196e-01	7.870631e-02	9.391674e-01	2.805305e-01	3.609808e-42	1.685041e-42	3.404728e-26	2.079785e+03	-2.424670e-15	2.026576e+06	7.614933e+01	1.013250e+05	2.881500e+02	2.881500e+02	5.000000e+00	
1.057945e-01	1.124235e-01	9.391674e-01	2.805305e-01	3.616386e-42	1.688111e-42	3.390120e-26	2.079785e+03	1.119576e-15	2.026576e+06	7.614933e+01	1.013250e+05	2.881500e+02	2.881500e+02	5.000000e+00	
1.240485e-01	5.369737e-02	9.391674e-01	2.805305e-01	4.240315e-42	1.979358e-42	3.683164e-26	2.079785e+03	7.335701e-15	2.026576e+06	7.614933e+01	1.013250e+05	2.881500e+02	2.881500e+02	5.000000e+00	
1.308027e-01	8.818529e-02	9.391674e-01	2.805305e-01	4.162787e-42	1.943169e-42	3.655408e-26	2.079785e+03	5.640264e-15	2.026576e+06	7.614933e+01	1.013250e+05	2.881500e+02	2.881500e+02	5.000000e+00	
1.377934e-01	1.242580e-01	9.391674e-01	2.805305e-01	4.115902e-42	1.921283e-42	3.615617e-26	2.079785e+03	-7.305769e-15	2.026576e+06	7.614933e+01	1.013250e+05	2.881500e+02	2.881500e+02	5.000000e+00	
1.562059e-01	6.152406e-02	9.391674e-01	2.805305e-01	4.970052e-42	2.319996e-42	3.986705e-26	2.079785e+03	4.542945e-15	2.026576e+06	7.614933e+01	1.013250e+05	2.881500e+02	2.881500e+02	5.000000e+00	
1.641559e-01	9.844191e-02	9.391674e-01	2.805305e-01	4.819645e-42	2.249787e-42	3.932415e-26	2.079785e+03	1.050036e-15	2.026576e+06	7.614933e+01	1.013250e+05	2.881500e+02	2.881500e+02	5.000000e+00	
1.723841e-01	1.370161e-01	9.391674e-01	2.805305e-01	4.706217e-42	2.196839e-42	3.865090e-26	2.079785e+03	-6.812898e-15	2.026576e+06	7.614933e+01	1.013250e+05	2.881500e+02	2.881500e+02	5.000000e+00	
1.913686e-01	7.004344e-02	9.391674e-01	2.805305e-01	5.842784e-42	2.727383e-42	4.321760e-26	2.079785e+03	3.061173e-14	2.026576e+06	7.614933e+01	1.013250e+05	2.881500e+02	2.881500e+02	5.000000e+00	
2.004160e-01	1.095411e-01	9.391674e-01	2.805305e-01	5.601850e-42	2.614916e-42	4.238683e-26	2.079785e+03	2.933442e-15	2.026576e+06	7.614933e+01	1.013250e+05	2.881500e+02	2.881500e+02	5.000000e+00	
2.097801e-01	1.507706e-01	9.391674e-01	2.805305e-01	5.405849e-42	2.523424e-42	4.141250e-26	2.079785e+03	-6.355661e-15	2.026576e+06	7.614933e+01	1.013250e+05	2.881500e+02	2.881500e+02	5.000000e+00	
2.298213e-01	7.931802e-02	9.391674e-01	2.805305e-01	6.888478e-42	3.215508e-42	4.691752e-26	2.079785e+03	3.042627e-14	2.026576e+06	7.614933e+01	1.013250e+05	2.881500e+02	2.881500e+02	5.000000e+00	
2.398416e-01	1.215534e-01	9.391674e-01	2.805305e-01	6.535473e-42	3.050727e-42	4.577440e-26	2.079785e+03	3.643752e-15	2.026576e+06	7.614933e+01	1.013250e+05	2.881500e+02	2.881500e+02	5.000000e+00	
2.502127e-01	1.656000e-01	9.391674e-01	2.805305e-01	6.237276e-42	2.911530e-42	4.447084e-26	2.079785e+03	-1.694692e-15	2.026576e+06	7.614933e+01	1.013250e+05	2.881500e+02	2.881500e+02	5.000000e+00	
2.718759e-01	8.941605e-02	9.391674e-01	2.805305e-01	8.143532e-42	3.801361e-42	5.100448e-26	2.079785e+03	2.373781e-14	2.026576e+06	7.614933e+01	1.013250e+05	2.881500e+02	2.881500e+02	5.000000e+00	
2.827146e-01	1.345552e-01	9.391674e-01	2.805305e-01	7.652204e-42	3.572011e-42	4.952247e-26	2.079785e+03	5.093929e-15	2.026576e+06	7.614933e+01	1.013250e+05	2.881500e+02	2.881500e+02	5.000000e+00	
2.939327e-01	1.815892e-01	9.391674e-01	2.805305e-01	7.227823e-42	3.373912e-42	4.785891e-26	2.079785e+03	-9.493169e-15	2.026576e+06	7.614933e+01	1.013250e+05	2.881500e+02	2.881500e+02	5.000000e+00	
3.178742e-01	1.004120e-01	9.391674e-01	2.805305e-01	9.652167e-42	4.505584e-42	5.551988e-26	2.079785e+03	2.548847e-14	2.026576e+06	7.614933e+01	1.013250e+05	2.881500e+02	2.881500e+02	5.000000e+00	
3.293423e-01	1.486295e-01	9.391674e-01	2.805305e-01	8.990585e-42	4.196761e-42	5.367030e-26	2.079785e+03	-1.583145e-15	2.026576e+06	7.614933e+01	1.013250e+05	2.881500e+02	2.881500e+02	5.000000e+00	
3.412118e-01	1.988300e-01	9.391674e-01	2.805305e-01	8.410742e-42	3.926093e-42	5.161317e-26	2.079785e+03	-4.433233e-15	2.026576e+06	7.614933e+01	1.013250e+05	2.881500e+02	2.881500e+02	5.000000e+00	
3.681911e-01	1.123873e-01	9.391674e-01	2.805305e-01	1.146811e-41	5.353257e-42	6.050930e-26	2.079785e+03	1.581901e-14	2.026576e+06	7.614933e+01	1.013250e+05	2.881500e+02	2.881500e+02	5.000000e+00	
3.800602e-01	1.638666e-01	9.391674e-01	2.805305e-01	1.059752e-41	4.946869e-42	5.826120e-26	2.079785e+03	-2.953310e-15	2.026576e+06	7.614933e+01	1.013250e+05	2.881500e+02	2.881500e+02	5.000000e+00	
3.923449e-01	2.174212e-01	9.391674e-01	2.805305e-01	9.826530e-42	4.586976e-42	5.577395e-26	2.079785e+03	-5.522866e-15	2.026576e+06	7.614933e+01	1.013250e+05	2.881500e+02	2.881500e+02	5.000000e+00	
4.232370e-01	1.254309e-01	9.391674e-01	2.805305e-01	1.365662e-41	6.374842e-42	6.602276e-26	2.079785e+03	1.620592e-14	2.026576e+06	7.614933e+01	1.013250e+05	2.881500e+02	2.881500e+02	5.000000e+00	
4.352343e-01	1.803642e-01	9.391674e-01	2.805305e-01	1.253008e-41	5.848978e-42	6.334290e-26	2.079785e+03	-1.377834e-15	2.026576e+06	7.614933e+01	1.013250e+05	2.881500e+02	2.881500e+02	5.000000e+00	
4.476514e-01	2.374699e-01	9.391674e-01	2.805305e-01	1.152453e-41	5.379595e-42	6.038578e-26	2.079785e+03	-1.032425e-14	2.026576e+06	7.614933e+01	1.013250e+05	2.881500e+02	2.881500e+02	5.000000e+00	
4.834623e-01	1.396397e-01	9.391674e-01	2.805305e-01	1.629692e-41	7.607321e-42	7.211518e-26	2.079785e+03	1.192013e-05	2.026576e+06	7.614933e+01	1.013250e+05	2.881500e+02	2.881500e+02	5.000000e+00	
4.952637e-01	1.982286e-01	9.391674e-01	2.805305e-01	1.485770e-41	6.935501e-42	6.896794e-26	2.079785e+03	0.000000e+00	2.026576e+06	7.614933e+01	1.013250e+05	2.881500e+02	2.881500e+02	5.000000e+00	
5.074782e-01	2.590915e-01	9.391674e-01	2.805305e-01	1.356489e-41	6.332022e-42	6.549784e-26	2.079785e+03	-9.653220e-15	2.026576e+06	7.614933e+01	1.013250e+05	2.881500e+02	2.881500e+02	5.000000e+00	
5.493602e-01	1.551199e-01	9.391676e-01	2.805306e-01	1.948511e-41	9.095554e-42	7.884664e-26	2.079785e+03	1.331033e-04	2.026576e+06	7.614934e+01	1.013250e+05	2.881501e+02	2.881500e+02	4.999999e+00	
5.605842e-01	2.175752e-01	9.391674e-01	2.805305e-01	1.766484e-41	8.245861e-42	7.519404e-26	2.079785e+03	1.200773e-15	2.026576e+06	7.614933e+01	1.013250e+05	2.881500e+02	2.881500e+02	5.000000e+00	
5.722011e-01	2.824108e-01	9.391674e-01	2.805305e-01	1.602088e-41	7.478466e-42	7.116432e-26	2.079785e+03	-1.805732e-14	2.026576e+06	7.614933e+01	1.013250e+05	2.881500e+02	2.881500e+02	5.000000e+00	
6.214719e-01	1.719873e-01	9.391678e-01	2.805307e-01	2.333763e-41	1.089389e-41	8.628277e-26	2.079786e+03	3.874400e-04	2.026577e+06	7.614936e+01	1.013251e+05	2.881502e+02	2.881500e+02	4.999998e+00	
6.316714e-01	2.385292e-01	9.391674e-01	2.805305e-01	2.105412e-41	9.827959e-42	8.208449e-26	2.079785e+03	-1.121438e-15	2.026576e+06	7.614933e+01	1.013250e+05	2.881500e+02	2.881500e+02	5.000000e+00	
6.422279e-01	3.075626e-01	9.391674e-01	2.805305e-01	1.898177e-41	8.860596e-42	7.744484e-26	2.079785e+03	-5.279313e-15	2.026576e+06	7.614933e+01	1.013250e+05	2.881500e+02	2.881500e+02	5.000000e+00	
7.003902e-01	1.903686e-01	9.391682e-01	2.805308e-01	2.799535e-41	1.306809e-41	9.449499e-26	2.079787e+03	7.775353e-04	2.026578e+06	7.614939e+01	1.013252e+05	2.881504e+02	2.881500e+02	4.999996e+00	
7.090442e-01	2.612269e-01	9.391674e-01	2.805305e-01	2.515008e-41	1.173993e-41	8.970843e-26	2.079785e+03	-2.095154e-15	2.026576e+06	7.614933e+01	1.013250e+05	2.881500e+02	2.881500e+02	5.000000e+00	
7.180010e-01	3.346927e-01	9.391674e-01	2.805305e-01	2.255620e-41	1.052912e-41	8.440481e-26	2.079785e+03	-1.580910e-14	2.026576e+06	7.614933e+01	1.013250e+05	2.881500e+02	2.881500e+02	5.000000e+00	
7.867656e-01	2.104021e-01	9.391687e-01	2.805309e-01	3.362837e-41	1.569756e-41	1.035608e-25	2.079788e+03	1.243546e-03	2.026579e+06	7.614943e+01	1.013254e+05	2.881506e+02	2.881500e+02	4.999994e+00	
7.932693e-01	2.858160e-01	9.391674e-01	2.805305e-01	3.010365e-41	1.405224e-41	9.814123e-26	2.079785e+03	9.787463e-15	2.026576e+06	7.614933e+01	1.013250e+05	2.881500e+02	2.881500e+02	5.000000e+00	
8.000007e-01	3.639583e-01	9.391674e-01	2.805305e-01	2.687622e-41	1.254569e-41	9.211577e-26	2.079785e+03	-1.479696e-14	2.026576e+06	7.614933e+01	1.013250e+05	2.881500e+02	2.881500e+02	5.000000e+00	
8.813108e-01	2.322391e-01	9.391692e-01	2.805311e-01	4.044162e-41	1.887795e-41	1.135638e-25	2.079789e+03	1.745148e-03	2.026580e+06	7.614947e+01	1.013255e+05	2.881509e+02	2.881500e+02	4.999991e+00	
8.849653e-01	3.124573e-01	9.391674e-01	2.805305e-01	3.609741e-41	1.685009e-41	1.083740e-25	2.079785e+03	9.145403e-15	2.026576e+06	7.614933e+01	1.013250e+05	2.881500e+02	2.881500e+02	5.000000e+00	
8.887478e-01	3.955297e-01	9.391674e-01	2.805305e-01	3.210215e-41	1.498512e-41	1.014843e-25	2.079785e+03	-1.558306e-14	2.026576e+06	7.614933e+01	1.013250e+05	2.881500e+02	2.881500e+02	5.000000e+00	
-1.117499e-02	7.304491e-02	9.391674e-01	2.805305e-01	1.041198e-42	4.860259e-43	1.832525e-26	2.079785e+03	-1.046167e-15	2.026576e+06	7.614933e+01	1.013250e+05	2.881500e+02	2.881500e+02	5.000000e+00	
-1.077066e-02	4.743758e-02	9.391674e-01	2.805305e-01	9.866794e-43	4.605771e-43	1.787154e-26	2.079785e+03	2.263117e-16	2.026576e+06	7.614933e+01	1.013250e+05	2.881500e+02	2.881500e+02	5.000000e+00	
-1.038655e-02	2.311062e-02	9.391674e-01	2.805305e-01	9.360725e-43	4.369540e-43	1.750240e-26	2.079785e+03	1.902147e-15	2.026576e+06	7.614933e+01	1.013250e+05	2.881500e+02	2.881500e+02	5.000000e+00	
-2.317730e-02	7.304491e-02	9.391674e-01	2.805305e-01	1.190093e-42	5.555293e-43	2.000448e-26	2.079785e+03	-2.142899e-16	2.026576e+06	7.614933e+01	1.013250e+05	2.881500e+02	2.881500e+02	5.000000e+00	
-2.260359e-02	4.743758e-02	9.391674e-01	2.805305e-01	1.176251e-42	5.490682e-43	1.993293e-26	2.079785e+03	6.421138e-16	2.026576e+06	7.614933e+01	1.013250e+05	2.881500e+02	2.881500e+02	5.000000e+00	
-2.205856e-02	2.311062e-02	9.391674e-01	2.805305e-01	1.162396e-42	5.426008e-43	1.985664e-26	2.079785e+03	-7.743022e-16	2.026576e+06	7.614933e+01	1.013250e+05	2.881500e+02	2.881500e+02	5.000000e+00	
-3.608845e-02	7.304491e-02	9.391674e-01	2.805305e-01	1.363387e-42	6.364222e-43	2.035881e-26	2.079785e+03	-3.561844e-15	2.026576e+06	7.614933e+01	1.013250e+05	2.881500e+02	2.881500e+02	5.000000e+00	
-3.563016e-02	4.743758e-02	9.391674e-01	2.805305e-01	1.405780e-42	6.562112e-43	2.070257e-26	2.079785e+03	-3.998145e-15	2.026576e+06	7.614933e+01	1.013250e+05	2.881500e+02	2.881500e+02	5.000000e+00	
-3.519478e-02	2.311062e-02	9.391674e-01	2.805305e-01	1.444460e-42	6.742670e-43	2.101302e-26	2.079785e+03	1.399819e-15	2.026576e+06	7.614933e+01	1.013250e+05	2.881500e+02	2.881500e+02	5.000000e+00	
1	10	58	57
57	58	59	56
56	59	60	55
55	60	48	5
10	11	61	58
58	61	62	59
59	62	63	60
60	63	47	48
11	12	64	61
61	64	65	62
62	65	66	63
63	66	46	47
12	13	67	64
64	67	68	65
65	68	69	66
66	69	45	46
13	14	70	67
67	70	71	68
68	71	72	69
69	72	44	45
14	15	73	70
70	73	74	71
71	74	75	72
72	75	43	44
15	16	76	73
73	76	77	74
74	77	78	75
75	78	42	43
16	17	79	76
76	79	80	77
77	80	81	78
78	81	41	42
17	18	82	79
79	82	83	80
80	83	84	81
81	84	40	41
18	19	85	82
82	85	86	83
83	86	87	84
84	87	39	40
19	20	88	85
85	88	89	86
86	89	90	87
87	90	38	39
20	21	91	88
88	91	92	89
89	92	93	90
90	93	37	38
21	22	94	91
91	94	95	92
92	95	96	93
93	96	36	37
22	23	97	94
94	97	98	95
95	98	99	96
96	99	35	36
23	24	100	97
97	100	101	98
98	101	102	99
99	102	34	35
24	25	103	100
100	103	104	101
101	104	105	102
102	105	33	34
25	26	106	103
103	106	107	104
104	107	108	105
105	108	32	33
26	27	109	106
106	109	110	107
107	110	111	108
108	111	31	32
27	3	28	109
109	28	29	110
110	29	30	111
111	30	4	31
5	49	112	55
55	112	113	56
56	113	114	57
57	114	9	1
49	50	115	112
112	115	116	113
113	116	117	114
114	117	8	9
50	51	118	115
115	118	119	116
116	119	120	117
117	120	7	8
51	6	52	118
118	52	53	119
119	53	54	120
120	54	2	7
