TITLE = "SU2 Simulation"
VARIABLES = "Iteration","CL","CD","CSF","CMx","CMy","CMz","CFx","CFy","CFz","CL/CD","AoA","Custom_ObjFunc","Res_Flow[0]","Res_Flow[1]","Res_Flow[2]","Res_Flow[3]","Res_Flow[4]","Linear_Solver_Iterations","CFL_Number","Time(min)"
ZONE T= "Convergence history"
           0, 0.00000000e+00, 0.00000000e+00, 0.00000000e+00, 0.00000000e+00, 0.00000000e+00, 0.00000000e+00, 0.00000000e+00, 0.00000000e+00, 0.00000000e+00, 0.00000000e+00, 0.00000000e+00, 0.00000000e+00, -1.08098973e+01, -3.20000000e+01, -1.16645360e+01, -1.15340796e+01, -3.59674364e+00, -4.85124719e+00, 0.00000000e+00, 0.0000000000, 1.0000000000, 0.0007009506
           1, 0.00000000e+00, 0.00000000e+00, 0.00000000e+00, 0.00000000e+00, 0.00000000e+00, 0.00000000e+00, 0.00000000e+00, 0.00000000e+00, 0.00000000e+00, 0.00000000e+00, 0.00000000e+00, 0.00000000e+00, -1.08098973e+01, -3.20000000e+01, -1.16603194e+01, -1.17342202e+01, -3.85528122e+00, -5.57957889e+00, 0.00000000e+00, 0.0000000000, 1.0000000000, 0.0013780316
           2, 0.00000000e+00, 0.00000000e+00, 0.00000000e+00, 0.00000000e+00, 0.00000000e+00, 0.00000000e+00, 0.00000000e+00, 0.00000000e+00, 0.00000000e+00, 0.00000000e+00, 0.00000000e+00, 0.00000000e+00, -1.08098973e+01, -3.20000000e+01, -1.15779143e+01, -1.15926919e+01, -3.92847339e+00, -5.45801748e+00, 0.00000000e+00, 0.0000000000, 1.0000000000, 0.0020888011
           3, 0.00000000e+00, 0.00000000e+00, 0.00000000e+00, 0.00000000e+00, 0.00000000e+00, 0.00000000e+00, 0.00000000e+00, 0.00000000e+00, 0.00000000e+00, 0.00000000e+00, 0.00000000e+00, 0.00000000e+00, -1.08098973e+01, -3.20000000e+01, -1.17119292e+01, -1.16917148e+01, -3.92847339e+00, -4.97037276e+00, 0.00000000e+00, 0.0000000000, 1.0000000000, 0.0027641455
           4, 0.00000000e+00, 0.00000000e+00, 0.00000000e+00, 0.00000000e+00, 0.00000000e+00, 0.00000000e+00, 0.00000000e+00, 0.00000000e+00, 0.00000000e+00, 0.00000000e+00, 0.00000000e+00, 0.00000000e+00, -1.08098973e+01, -3.20000000e+01, -1.15614142e+01, -1.16186508e+01, -3.92847339e+00, -5.13945214e+00, 0.00000000e+00, 0.0000000000, 1.0000000000, 0.0033722281
           5, 0.00000000e+00, 0.00000000e+00, 0.00000000e+00, 0.00000000e+00, 0.00000000e+00, 0.00000000e+00, 0.00000000e+00, 0.00000000e+00, 0.00000000e+00, 0.00000000e+00, 0.00000000e+00, 0.00000000e+00, -1.08098973e+01, -3.20000000e+01, -1.16442271e+01, -1.17119292e+01, -3.92847339e+00, -5.16362288e+00, 0.00000000e+00, 0.0000000000, 1.0000000000, 0.0040100455
           6, 0.00000000e+00, 0.00000000e+00, 0.00000000e+00, 0.00000000e+00, 0.00000000e+00, 0.00000000e+00, 0.00000000e+00, 0.00000000e+00, 0.00000000e+00, 0.00000000e+00, 0.00000000e+00, 0.00000000e+00, -1.08098973e+01, -3.20000000e+01, -1.18374572e+01, -1.18572114e+01, -3.92847339e+00, -5.23178222e+00, 0.00000000e+00, 0.0000000000, 1.0000000000, 0.0046481331
           7, 0.00000000e+00, 0.00000000e+00, 0.00000000e+00, 0.00000000e+00, 0.00000000e+00, 0.00000000e+00, 0.00000000e+00, 0.00000000e+00, 0.00000000e+00, 0.00000000e+00, 0.00000000e+00, 0.00000000e+00, -1.08098973e+01, -3.20000000e+01, -1.17797605e+01, -1.18282155e+01, -3.92847339e+00, -5.14553195e+00, 0.00000000e+00, 0.0000000000, 1.0000000000, 0.0053394119
           8, 0.00000000e+00, 0.00000000e+00, 0.00000000e+00, 0.00000000e+00, 0.00000000e+00, 0.00000000e+00, 0.00000000e+00, 0.00000000e+00, 0.00000000e+00, 0.00000000e+00, 0.00000000e+00, 0.00000000e+00, -1.08098973e+01, -3.20000000e+01, -1.16917148e+01, -1.16442271e+01, -3.92847339e+00, -5.32190151e+00, 0.00000000e+00, 0.0000000000, 1.0000000000, 0.0060067097
           9, 0.00000000e+00, 0.00000000e+00, 0.00000000e+00, 0.00000000e+00, 0.00000000e+00, 0.00000000e+00, 0.00000000e+00, 0.00000000e+00, 0.00000000e+00, 0.00000000e+00, 0.00000000e+00, 0.00000000e+00, -1.08098973e+01, -3.20000000e+01, -1.17726402e+01, -1.19613494e+01, -3.92847339e+00, -4.98775755e+00, 0.00000000e+00, 0.0000000000, 1.0000000000, 0.0066977620
          10, 0.00000000e+00, 0.00000000e+00, 0.00000000e+00, 0.00000000e+00, 0.00000000e+00, 0.00000000e+00, 0.00000000e+00, 0.00000000e+00, 0.00000000e+00, 0.00000000e+00, 0.00000000e+00, 0.00000000e+00, -1.08098973e+01, -3.20000000e+01, -1.17227888e+01, -1.17657461e+01, -3.92847339e+00, -4.93191434e+00, 0.00000000e+00, 0.0000000000, 1.0000000000, 0.0074811816
          11, 0.00000000e+00, 0.00000000e+00, 0.00000000e+00, 0.00000000e+00, 0.00000000e+00, 0.00000000e+00, 0.00000000e+00, 0.00000000e+00, 0.00000000e+00, 0.00000000e+00, 0.00000000e+00, 0.00000000e+00, -1.08098973e+01, -3.20000000e+01, -1.18374572e+01, -1.19030966e+01, -3.92847339e+00, -5.29985326e+00, 0.00000000e+00, 0.0000000000, 1.0000000000, 0.0082526644
          12, 0.00000000e+00, 0.00000000e+00, 0.00000000e+00, 0.00000000e+00, 0.00000000e+00, 0.00000000e+00, 0.00000000e+00, 0.00000000e+00, 0.00000000e+00, 0.00000000e+00, 0.00000000e+00, 0.00000000e+00, -1.08098973e+01, -3.20000000e+01, -1.17284293e+01, -1.17726402e+01, -3.92847339e+00, -5.17494096e+00, 0.00000000e+00, 0.0000000000, 1.0000000000, 0.0090100805
          13, 0.00000000e+00, 0.00000000e+00, 0.00000000e+00, 0.00000000e+00, 0.00000000e+00, 0.00000000e+00, 0.00000000e+00, 0.00000000e+00, 0.00000000e+00, 0.00000000e+00, 0.00000000e+00, 0.00000000e+00, -1.08098973e+01, -3.20000000e+01, -1.18374572e+01, -1.19976247e+01, -3.92847339e+00, -4.93150877e+00, 0.00000000e+00, 0.0000000000, 1.0000000000, 0.0097586791
          14, 0.00000000e+00, 0.00000000e+00, 0.00000000e+00, 0.00000000e+00, 0.00000000e+00, 0.00000000e+00, 0.00000000e+00, 0.00000000e+00, 0.00000000e+00, 0.00000000e+00, 0.00000000e+00, 0.00000000e+00, -1.08098973e+01, -3.20000000e+01, -1.16777005e+01, -1.17726402e+01, -3.92847339e+00, -5.05973410e+00, 0.00000000e+00, 0.0000000000, 1.0000000000, 0.0105251789
          15, 0.00000000e+00, 0.00000000e+00, 0.00000000e+00, 0.00000000e+00, 0.00000000e+00, 0.00000000e+00, 0.00000000e+00, 0.00000000e+00, 0.00000000e+00, 0.00000000e+00, 0.00000000e+00, 0.00000000e+00, -1.08098973e+01, -3.20000000e+01, -1.22172911e+01, -1.20183211e+01, -3.92847339e+00, -5.05248446e+00, 0.00000000e+00, 0.0000000000, 1.0000000000, 0.0112893979
          16, 0.00000000e+00, 0.00000000e+00, 0.00000000e+00, 0.00000000e+00, 0.00000000e+00, 0.00000000e+00, 0.00000000e+00, 0.00000000e+00, 0.00000000e+00, 0.00000000e+00, 0.00000000e+00, 0.00000000e+00, -1.08098973e+01, -3.20000000e+01, -1.16366071e+01, -1.17947421e+01, -3.92847339e+00, -5.10466725e+00, 0.00000000e+00, 0.0000000000, 1.0000000000, 0.0120211005
          17, 0.00000000e+00, 0.00000000e+00, 0.00000000e+00, 0.00000000e+00, 0.00000000e+00, 0.00000000e+00, 0.00000000e+00, 0.00000000e+00, 0.00000000e+00, 0.00000000e+00, 0.00000000e+00, 0.00000000e+00, -1.08098973e+01, -3.20000000e+01, -1.17590641e+01, -1.19787305e+01, -3.92847339e+00, -4.78639932e+00, 0.00000000e+00, 0.0000000000, 1.0000000000, 0.0127025843
          18, 0.00000000e+00, 0.00000000e+00, 0.00000000e+00, 0.00000000e+00, 0.00000000e+00, 0.00000000e+00, 0.00000000e+00, 0.00000000e+00, 0.00000000e+00, 0.00000000e+00, 0.00000000e+00, 0.00000000e+00, -1.08098973e+01, -3.20000000e+01, -1.18026392e+01, -1.18193511e+01, -3.92847339e+00, -5.06251007e+00, 0.00000000e+00, 0.0000000000, 1.0000000000, 0.0133742213
          19, 0.00000000e+00, 0.00000000e+00, 0.00000000e+00, 0.00000000e+00, 0.00000000e+00, 0.00000000e+00, 0.00000000e+00, 0.00000000e+00, 0.00000000e+00, 0.00000000e+00, 0.00000000e+00, 0.00000000e+00, -1.08098973e+01, -3.20000000e+01, -1.18678061e+01, -1.17342202e+01, -3.92847339e+00, -5.02124931e+00, 0.00000000e+00, 0.0000000000, 1.0000000000, 0.0141715884
          20, 0.00000000e+00, 0.00000000e+00, 0.00000000e+00, 0.00000000e+00, 0.00000000e+00, 0.00000000e+00, 0.00000000e+00, 0.00000000e+00, 0.00000000e+00, 0.00000000e+00, 0.00000000e+00, 0.00000000e+00, -1.08098973e+01, -3.20000000e+01, -1.15779143e+01, -1.16688361e+01, -3.92847339e+00, -4.90117246e+00, 0.00000000e+00, 0.0000000000, 1.0000000000, 0.0148550351
          21, 0.00000000e+00, 0.00000000e+00, 0.00000000e+00, 0.00000000e+00, 0.00000000e+00, 0.00000000e+00, 0.00000000e+00, 0.00000000e+00, 0.00000000e+00, 0.00000000e+00, 0.00000000e+00, 0.00000000e+00, -1.08098973e+01, -3.20000000e+01, -1.18678061e+01, -1.18193511e+01, -3.92847339e+00, -5.00737691e+00, 0.00000000e+00, 0.0000000000, 1.0000000000, 0.0155351162
          22, 0.00000000e+00, 0.00000000e+00, 0.00000000e+00, 0.00000000e+00, 0.00000000e+00, 0.00000000e+00, 0.00000000e+00, 0.00000000e+00, 0.00000000e+00, 0.00000000e+00, 0.00000000e+00, 0.00000000e+00, -1.08098973e+01, -3.20000000e+01, -1.17015869e+01, -1.16403837e+01, -3.92847339e+00, -5.01052290e+00, 0.00000000e+00, 0.0000000000, 1.0000000000, 0.0161788185
          23, 0.00000000e+00, 0.00000000e+00, 0.00000000e+00, 0.00000000e+00, 0.00000000e+00, 0.00000000e+00, 0.00000000e+00, 0.00000000e+00, 0.00000000e+00, 0.00000000e+00, 0.00000000e+00, 0.00000000e+00, -1.08098973e+01, -3.20000000e+01, -1.15750757e+01, -1.15510719e+01, -3.92847339e+00, -4.63963224e+00, 0.00000000e+00, 0.0000000000, 1.0000000000, 0.0167341153
          24, 0.00000000e+00, 0.00000000e+00, 0.00000000e+00, 0.00000000e+00, 0.00000000e+00, 0.00000000e+00, 0.00000000e+00, 0.00000000e+00, 0.00000000e+00, 0.00000000e+00, 0.00000000e+00, 0.00000000e+00, -1.08098973e+01, -3.20000000e+01, -1.16481397e+01, -1.17462871e+01, -3.92847339e+00, -4.69617310e+00, 0.00000000e+00, 0.0000000000, 1.0000000000, 0.0174136281
          25, 0.00000000e+00, 0.00000000e+00, 0.00000000e+00, 0.00000000e+00, 0.00000000e+00, 0.00000000e+00, 0.00000000e+00, 0.00000000e+00, 0.00000000e+00, 0.00000000e+00, 0.00000000e+00, 0.00000000e+00, -1.08098973e+01, -3.20000000e+01, -1.15077264e+01, -1.14787305e+01, -3.92847339e+00, -4.64237761e+00, 0.00000000e+00, 0.0000000000, 1.0000000000, 0.0180329998
          26, 0.00000000e+00, 0.00000000e+00, 0.00000000e+00, 0.00000000e+00, 0.00000000e+00, 0.00000000e+00, 0.00000000e+00, 0.00000000e+00, 0.00000000e+00, 0.00000000e+00, 0.00000000e+00, 0.00000000e+00, -1.08098973e+01, -3.20000000e+01, -1.17119292e+01, -1.19030966e+01, -3.92847339e+00, -5.04134970e+00, 0.00000000e+00, 0.0000000000, 1.0000000000, 0.0186155995
          27, 0.00000000e+00, 0.00000000e+00, 0.00000000e+00, 0.00000000e+00, 0.00000000e+00, 0.00000000e+00, 0.00000000e+00, 0.00000000e+00, 0.00000000e+00, 0.00000000e+00, 0.00000000e+00, 0.00000000e+00, -1.08098973e+01, -3.20000000e+01, -1.20667761e+01, -1.19452571e+01, -3.92847339e+00, -4.90943760e+00, 0.00000000e+00, 0.0000000000, 1.0000000000, 0.0194029133
          28, 0.00000000e+00, 0.00000000e+00, 0.00000000e+00, 0.00000000e+00, 0.00000000e+00, 0.00000000e+00, 0.00000000e+00, 0.00000000e+00, 0.00000000e+00, 0.00000000e+00, 0.00000000e+00, 0.00000000e+00, -1.08098973e+01, -3.20000000e+01, -1.20667761e+01, -1.20183211e+01, -3.92847339e+00, -4.86892641e+00, 0.00000000e+00, 0.0000000000, 1.0000000000, 0.0200716615
          29, 0.00000000e+00, 0.00000000e+00, 0.00000000e+00, 0.00000000e+00, 0.00000000e+00, 0.00000000e+00, 0.00000000e+00, 0.00000000e+00, 0.00000000e+00, 0.00000000e+00, 0.00000000e+00, 0.00000000e+00, -1.08098973e+01, -3.20000000e+01, -1.19030966e+01, -1.19030966e+01, -3.92847339e+00, -5.04244336e+00, 0.00000000e+00, 0.0000000000, 1.0000000000, 0.0207139969
          30, 0.00000000e+00, 0.00000000e+00, 0.00000000e+00, 0.00000000e+00, 0.00000000e+00, 0.00000000e+00, 0.00000000e+00, 0.00000000e+00, 0.00000000e+00, 0.00000000e+00, 0.00000000e+00, 0.00000000e+00, -1.08098973e+01, -3.20000000e+01, -1.22172911e+01, -1.22172911e+01, -3.92847339e+00, -4.99506638e+00, 0.00000000e+00, 0.0000000000, 1.0000000000, 0.0213095983
          31, 0.00000000e+00, 0.00000000e+00, 0.00000000e+00, 0.00000000e+00, 0.00000000e+00, 0.00000000e+00, 0.00000000e+00, 0.00000000e+00, 0.00000000e+00, 0.00000000e+00, 0.00000000e+00, 0.00000000e+00, -1.08098973e+01, -3.20000000e+01, -1.16186508e+01, -1.16917148e+01, -3.92847339e+00, -4.64456568e+00, 0.00000000e+00, 0.0000000000, 1.0000000000, 0.0218788107
          32, 0.00000000e+00, 0.00000000e+00, 0.00000000e+00, 0.00000000e+00, 0.00000000e+00, 0.00000000e+00, 0.00000000e+00, 0.00000000e+00, 0.00000000e+00, 0.00000000e+00, 0.00000000e+00, 0.00000000e+00, -1.08098973e+01, -3.20000000e+01, -1.18678061e+01, -1.18678061e+01, -3.92847339e+00, -5.13535449e+00, 0.00000000e+00, 0.0000000000, 1.0000000000, 0.0226214647
          33, 0.00000000e+00, 0.00000000e+00, 0.00000000e+00, 0.00000000e+00, 0.00000000e+00, 0.00000000e+00, 0.00000000e+00, 0.00000000e+00, 0.00000000e+00, 0.00000000e+00, 0.00000000e+00, 0.00000000e+00, -1.08098973e+01, -3.20000000e+01, -1.20183211e+01, -1.19302755e+01, -3.92847339e+00, -5.15618181e+00, 0.00000000e+00, 0.0000000000, 1.0000000000, 0.0232938806
          34, 0.00000000e+00, 0.00000000e+00, 0.00000000e+00, 0.00000000e+00, 0.00000000e+00, 0.00000000e+00, 0.00000000e+00, 0.00000000e+00, 0.00000000e+00, 0.00000000e+00, 0.00000000e+00, 0.00000000e+00, -1.08098973e+01, -3.20000000e+01, -1.18374572e+01, -1.18193511e+01, -3.92847339e+00, -4.59240069e+00, 0.00000000e+00, 0.0000000000, 1.0000000000, 0.0239972989
          35, 0.00000000e+00, 0.00000000e+00, 0.00000000e+00, 0.00000000e+00, 0.00000000e+00, 0.00000000e+00, 0.00000000e+00, 0.00000000e+00, 0.00000000e+00, 0.00000000e+00, 0.00000000e+00, 0.00000000e+00, -1.08098973e+01, -3.20000000e+01, -1.18193511e+01, -1.17462871e+01, -3.92847339e+00, -4.65862404e+00, 0.00000000e+00, 0.0000000000, 1.0000000000, 0.0247248650
          36, 0.00000000e+00, 0.00000000e+00, 0.00000000e+00, 0.00000000e+00, 0.00000000e+00, 0.00000000e+00, 0.00000000e+00, 0.00000000e+00, 0.00000000e+00, 0.00000000e+00, 0.00000000e+00, 0.00000000e+00, -1.08098973e+01, -3.20000000e+01, -1.17462871e+01, -1.19452571e+01, -3.92847339e+00, -4.59173479e+00, 0.00000000e+00, 0.0000000000, 1.0000000000, 0.0254338185
          37, 0.00000000e+00, 0.00000000e+00, 0.00000000e+00, 0.00000000e+00, 0.00000000e+00, 0.00000000e+00, 0.00000000e+00, 0.00000000e+00, 0.00000000e+00, 0.00000000e+00, 0.00000000e+00, 0.00000000e+00, -1.08098973e+01, -3.20000000e+01, -1.16366071e+01, -1.16645360e+01, -3.92847339e+00, -4.76789449e+00, 0.00000000e+00, 0.0000000000, 1.0000000000, 0.0261795680
          38, 0.00000000e+00, 0.00000000e+00, 0.00000000e+00, 0.00000000e+00, 0.00000000e+00, 0.00000000e+00, 0.00000000e+00, 0.00000000e+00, 0.00000000e+00, 0.00000000e+00, 0.00000000e+00, 0.00000000e+00, -1.08098973e+01, -3.20000000e+01, -1.17284293e+01, -1.18108344e+01, -3.92847339e+00, -4.44757777e+00, 0.00000000e+00, 0.0000000000, 1.0000000000, 0.0267607371
          39, 0.00000000e+00, 0.00000000e+00, 0.00000000e+00, 0.00000000e+00, 0.00000000e+00, 0.00000000e+00, 0.00000000e+00, 0.00000000e+00, 0.00000000e+00, 0.00000000e+00, 0.00000000e+00, 0.00000000e+00, -1.08098973e+01, -3.20000000e+01, -1.15411998e+01, -1.15750757e+01, -3.92847339e+00, -4.58432325e+00, 0.00000000e+00, 0.0000000000, 1.0000000000, 0.0274192333
          40, 0.00000000e+00, 0.00000000e+00, 0.00000000e+00, 0.00000000e+00, 0.00000000e+00, 0.00000000e+00, 0.00000000e+00, 0.00000000e+00, 0.00000000e+00, 0.00000000e+00, 0.00000000e+00, 0.00000000e+00, -1.08098973e+01, -3.20000000e+01, -1.15695075e+01, -1.16152311e+01, -3.92847339e+00, -4.53121502e+00, 0.00000000e+00, 0.0000000000, 1.0000000000, 0.0280809522
          41, 0.00000000e+00, 0.00000000e+00, 0.00000000e+00, 0.00000000e+00, 0.00000000e+00, 0.00000000e+00, 0.00000000e+00, 0.00000000e+00, 0.00000000e+00, 0.00000000e+00, 0.00000000e+00, 0.00000000e+00, -1.08098973e+01, -3.20000000e+01, -1.17657461e+01, -1.17590641e+01, -3.92847339e+00, -4.69204957e+00, 0.00000000e+00, 0.0000000000, 1.0000000000, 0.0286957542
          42, 0.00000000e+00, 0.00000000e+00, 0.00000000e+00, 0.00000000e+00, 0.00000000e+00, 0.00000000e+00, 0.00000000e+00, 0.00000000e+00, 0.00000000e+00, 0.00000000e+00, 0.00000000e+00, 0.00000000e+00, -1.08098973e+01, -3.20000000e+01, -1.18906848e+01, -1.17462871e+01, -3.92847339e+00, -4.79640713e+00, 0.00000000e+00, 0.0000000000, 1.0000000000, 0.0294394851
          43, 0.00000000e+00, 0.00000000e+00, 0.00000000e+00, 0.00000000e+00, 0.00000000e+00, 0.00000000e+00, 0.00000000e+00, 0.00000000e+00, 0.00000000e+00, 0.00000000e+00, 0.00000000e+00, 0.00000000e+00, -1.08098973e+01, -3.20000000e+01, -1.20667761e+01, -1.19162611e+01, -3.92847339e+00, -4.85128608e+00, 0.00000000e+00, 0.0000000000, 1.0000000000, 0.0300812523
          44, 0.00000000e+00, 0.00000000e+00, 0.00000000e+00, 0.00000000e+00, 0.00000000e+00, 0.00000000e+00, 0.00000000e+00, 0.00000000e+00, 0.00000000e+00, 0.00000000e+00, 0.00000000e+00, 0.00000000e+00, -1.08098973e+01, -3.20000000e+01, -1.16292455e+01, -1.15866597e+01, -3.92847339e+00, -4.60987798e+00, 0.00000000e+00, 0.0000000000, 1.0000000000, 0.0307567477
          45, 0.00000000e+00, 0.00000000e+00, 0.00000000e+00, 0.00000000e+00, 0.00000000e+00, 0.00000000e+00, 0.00000000e+00, 0.00000000e+00, 0.00000000e+00, 0.00000000e+00, 0.00000000e+00, 0.00000000e+00, -1.08098973e+01, -3.20000000e+01, -1.19162611e+01, -1.20183211e+01, -3.92847339e+00, -4.76131981e+00, 0.00000000e+00, 0.0000000000, 1.0000000000, 0.0314744115
          46, 0.00000000e+00, 0.00000000e+00, 0.00000000e+00, 0.00000000e+00, 0.00000000e+00, 0.00000000e+00, 0.00000000e+00, 0.00000000e+00, 0.00000000e+00, 0.00000000e+00, 0.00000000e+00, 0.00000000e+00, -1.08098973e+01, -3.20000000e+01, -1.16118644e+01, -1.17797605e+01, -3.92847339e+00, -4.51994371e+00, 0.00000000e+00, 0.0000000000, 1.0000000000, 0.0321425796
          47, 0.00000000e+00, 0.00000000e+00, 0.00000000e+00, 0.00000000e+00, 0.00000000e+00, 0.00000000e+00, 0.00000000e+00, 0.00000000e+00, 0.00000000e+00, 0.00000000e+00, 0.00000000e+00, 0.00000000e+00, -1.08098973e+01, -3.20000000e+01, -1.16917148e+01, -1.17284293e+01, -3.92847339e+00, -4.56929904e+00, 0.00000000e+00, 0.0000000000, 1.0000000000, 0.0328447461
          48, 0.00000000e+00, 0.00000000e+00, 0.00000000e+00, 0.00000000e+00, 0.00000000e+00, 0.00000000e+00, 0.00000000e+00, 0.00000000e+00, 0.00000000e+00, 0.00000000e+00, 0.00000000e+00, 0.00000000e+00, -1.08098973e+01, -3.20000000e+01, -1.19030966e+01, -1.18471097e+01, -3.92847339e+00, -4.90979376e+00, 0.00000000e+00, 0.0000000000, 1.0000000000, 0.0334976991
          49, 0.00000000e+00, 0.00000000e+00, 0.00000000e+00, 0.00000000e+00, 0.00000000e+00, 0.00000000e+00, 0.00000000e+00, 0.00000000e+00, 0.00000000e+00, 0.00000000e+00, 0.00000000e+00, 0.00000000e+00, -1.08098973e+01, -3.20000000e+01, -1.15896548e+01, -1.16292455e+01, -3.92847339e+00, -4.49118293e+00, 0.00000000e+00, 0.0000000000, 1.0000000000, 0.0341843128
          50, 0.00000000e+00, 0.00000000e+00, 0.00000000e+00, 0.00000000e+00, 0.00000000e+00, 0.00000000e+00, 0.00000000e+00, 0.00000000e+00, 0.00000000e+00, 0.00000000e+00, 0.00000000e+00, 0.00000000e+00, -1.08098973e+01, -3.20000000e+01, -1.19030966e+01, -1.25183211e+01, -3.92847339e+00, -4.73504943e+00, 0.00000000e+00, 0.0000000000, 1.0000000000, 0.0348767996
          51, 0.00000000e+00, 0.00000000e+00, 0.00000000e+00, 0.00000000e+00, 0.00000000e+00, 0.00000000e+00, 0.00000000e+00, 0.00000000e+00, 0.00000000e+00, 0.00000000e+00, 0.00000000e+00, 0.00000000e+00, -1.08098973e+01, -3.20000000e+01, -1.15640786e+01, -1.16020666e+01, -3.92847339e+00, -4.82970131e+00, 0.00000000e+00, 0.0000000000, 1.0000000000, 0.0356840134
          52, 0.00000000e+00, 0.00000000e+00, 0.00000000e+00, 0.00000000e+00, 0.00000000e+00, 0.00000000e+00, 0.00000000e+00, 0.00000000e+00, 0.00000000e+00, 0.00000000e+00, 0.00000000e+00, 0.00000000e+00, -1.08098973e+01, -3.20000000e+01, -1.20411998e+01, -1.19613494e+01, -3.92847339e+00, -4.56518816e+00, 0.00000000e+00, 0.0000000000, 1.0000000000, 0.0364168485
          53, 0.00000000e+00, 0.00000000e+00, 0.00000000e+00, 0.00000000e+00, 0.00000000e+00, 0.00000000e+00, 0.00000000e+00, 0.00000000e+00, 0.00000000e+00, 0.00000000e+00, 0.00000000e+00, 0.00000000e+00, -1.08098973e+01, -3.20000000e+01, -1.22172911e+01, -1.20667761e+01, -3.92847339e+00, -4.90391565e+00, 0.00000000e+00, 0.0000000000, 1.0000000000, 0.0371242801
          54, 0.00000000e+00, 0.00000000e+00, 0.00000000e+00, 0.00000000e+00, 0.00000000e+00, 0.00000000e+00, 0.00000000e+00, 0.00000000e+00, 0.00000000e+00, 0.00000000e+00, 0.00000000e+00, 0.00000000e+00, -1.08098973e+01, -3.20000000e+01, -1.19302755e+01, -1.18572114e+01, -3.92847339e+00, -5.07572420e+00, 0.00000000e+00, 0.0000000000, 1.0000000000, 0.0379279455
          55, 0.00000000e+00, 0.00000000e+00, 0.00000000e+00, 0.00000000e+00, 0.00000000e+00, 0.00000000e+00, 0.00000000e+00, 0.00000000e+00, 0.00000000e+00, 0.00000000e+00, 0.00000000e+00, 0.00000000e+00, -1.08098973e+01, -3.20000000e+01, -1.18572114e+01, -1.17590641e+01, -3.92847339e+00, -4.96936847e+00, 0.00000000e+00, 0.0000000000, 1.0000000000, 0.0387039820
          56, 0.00000000e+00, 0.00000000e+00, 0.00000000e+00, 0.00000000e+00, 0.00000000e+00, 0.00000000e+00, 0.00000000e+00, 0.00000000e+00, 0.00000000e+00, 0.00000000e+00, 0.00000000e+00, 0.00000000e+00, -1.08098973e+01, -3.20000000e+01, -1.17066964e+01, -1.16645360e+01, -3.92847339e+00, -4.95799063e+00, 0.00000000e+00, 0.0000000000, 1.0000000000, 0.0395166834
          57, 0.00000000e+00, 0.00000000e+00, 0.00000000e+00, 0.00000000e+00, 0.00000000e+00, 0.00000000e+00, 0.00000000e+00, 0.00000000e+00, 0.00000000e+00, 0.00000000e+00, 0.00000000e+00, 0.00000000e+00, -1.08098973e+01, -3.20000000e+01, -1.16442271e+01, -1.16020666e+01, -3.92847339e+00, -4.69903021e+00, 0.00000000e+00, 0.0000000000, 1.0000000000, 0.0402670026
          58, 0.00000000e+00, 0.00000000e+00, 0.00000000e+00, 0.00000000e+00, 0.00000000e+00, 0.00000000e+00, 0.00000000e+00, 0.00000000e+00, 0.00000000e+00, 0.00000000e+00, 0.00000000e+00, 0.00000000e+00, -1.08098973e+01, -3.20000000e+01, -1.21292455e+01, -1.19787305e+01, -3.92847339e+00, -4.82701898e+00, 0.00000000e+00, 0.0000000000, 1.0000000000, 0.0410585642
          59, 0.00000000e+00, 0.00000000e+00, 0.00000000e+00, 0.00000000e+00, 0.00000000e+00, 0.00000000e+00, 0.00000000e+00, 0.00000000e+00, 0.00000000e+00, 0.00000000e+00, 0.00000000e+00, 0.00000000e+00, -1.08098973e+01, -3.20000000e+01, -1.16256562e+01, -1.16822722e+01, -3.92847339e+00, -4.72000082e+00, 0.00000000e+00, 0.0000000000, 1.0000000000, 0.0418244958
          60, 0.00000000e+00, 0.00000000e+00, 0.00000000e+00, 0.00000000e+00, 0.00000000e+00, 0.00000000e+00, 0.00000000e+00, 0.00000000e+00, 0.00000000e+00, 0.00000000e+00, 0.00000000e+00, 0.00000000e+00, -1.08098973e+01, -3.20000000e+01, -1.17726402e+01, -1.15536116e+01, -3.92847339e+00, -4.52658200e+00, 0.00000000e+00, 0.0000000000, 1.0000000000, 0.0425836126
          61, 0.00000000e+00, 0.00000000e+00, 0.00000000e+00, 0.00000000e+00, 0.00000000e+00, 0.00000000e+00, 0.00000000e+00, 0.00000000e+00, 0.00000000e+00, 0.00000000e+00, 0.00000000e+00, 0.00000000e+00, -1.08098973e+01, -3.20000000e+01, -1.18471097e+01, -1.18678061e+01, -3.92847339e+00, -5.03828741e+00, 0.00000000e+00, 0.0000000000, 1.0000000000, 0.0433319290
          62, 0.00000000e+00, 0.00000000e+00, 0.00000000e+00, 0.00000000e+00, 0.00000000e+00, 0.00000000e+00, 0.00000000e+00, 0.00000000e+00, 0.00000000e+00, 0.00000000e+00, 0.00000000e+00, 0.00000000e+00, -1.08098973e+01, -3.20000000e+01, -1.16152311e+01, -1.15750757e+01, -3.92847339e+00, -4.74821960e+00, 0.00000000e+00, 0.0000000000, 1.0000000000, 0.0441009800
          63, 0.00000000e+00, 0.00000000e+00, 0.00000000e+00, 0.00000000e+00, 0.00000000e+00, 0.00000000e+00, 0.00000000e+00, 0.00000000e+00, 0.00000000e+00, 0.00000000e+00, 0.00000000e+00, 0.00000000e+00, -1.08098973e+01, -3.20000000e+01, -1.18374572e+01, -1.18374572e+01, -3.92847339e+00, -4.83447533e+00, 0.00000000e+00, 0.0000000000, 1.0000000000, 0.0448904475
          64, 0.00000000e+00, 0.00000000e+00, 0.00000000e+00, 0.00000000e+00, 0.00000000e+00, 0.00000000e+00, 0.00000000e+00, 0.00000000e+00, 0.00000000e+00, 0.00000000e+00, 0.00000000e+00, 0.00000000e+00, -1.08098973e+01, -3.20000000e+01, -1.16777005e+01, -1.17066964e+01, -3.92847339e+00, -4.97214001e+00, 0.00000000e+00, 0.0000000000, 1.0000000000, 0.0456386646
          65, 0.00000000e+00, 0.00000000e+00, 0.00000000e+00, 0.00000000e+00, 0.00000000e+00, 0.00000000e+00, 0.00000000e+00, 0.00000000e+00, 0.00000000e+00, 0.00000000e+00, 0.00000000e+00, 0.00000000e+00, -1.08098973e+01, -3.20000000e+01, -1.19162611e+01, -2.60446721e+01, -3.92847339e+00, -4.78443877e+00, 0.00000000e+00, 0.0000000000, 1.0000000000, 0.0464308500
          66, 0.00000000e+00, 0.00000000e+00, 0.00000000e+00, 0.00000000e+00, 0.00000000e+00, 0.00000000e+00, 0.00000000e+00, 0.00000000e+00, 0.00000000e+00, 0.00000000e+00, 0.00000000e+00, 0.00000000e+00, -1.08098973e+01, -3.20000000e+01, -1.17119292e+01, -1.18193511e+01, -3.92847339e+00, -4.78009854e+00, 0.00000000e+00, 0.0000000000, 1.0000000000, 0.0472122471
          67, 0.00000000e+00, 0.00000000e+00, 0.00000000e+00, 0.00000000e+00, 0.00000000e+00, 0.00000000e+00, 0.00000000e+00, 0.00000000e+00, 0.00000000e+00, 0.00000000e+00, 0.00000000e+00, 0.00000000e+00, -1.08098973e+01, -3.20000000e+01, -1.16822722e+01, -1.17726402e+01, -3.92847339e+00, -4.97026640e+00, 0.00000000e+00, 0.0000000000, 1.0000000000, 0.0479010820
          68, 0.00000000e+00, 0.00000000e+00, 0.00000000e+00, 0.00000000e+00, 0.00000000e+00, 0.00000000e+00, 0.00000000e+00, 0.00000000e+00, 0.00000000e+00, 0.00000000e+00, 0.00000000e+00, 0.00000000e+00, -1.08098973e+01, -3.20000000e+01, -1.16328951e+01, -1.17462871e+01, -3.92847339e+00, -4.75956531e+00, 0.00000000e+00, 0.0000000000, 1.0000000000, 0.0485582312
          69, 0.00000000e+00, 0.00000000e+00, 0.00000000e+00, 0.00000000e+00, 0.00000000e+00, 0.00000000e+00, 0.00000000e+00, 0.00000000e+00, 0.00000000e+00, 0.00000000e+00, 0.00000000e+00, 0.00000000e+00, -1.08098973e+01, -3.20000000e+01, -1.17227888e+01, -1.17726402e+01, -3.92847339e+00, -4.90590652e+00, 0.00000000e+00, 0.0000000000, 1.0000000000, 0.0492670655
          70, 0.00000000e+00, 0.00000000e+00, 0.00000000e+00, 0.00000000e+00, 0.00000000e+00, 0.00000000e+00, 0.00000000e+00, 0.00000000e+00, 0.00000000e+00, 0.00000000e+00, 0.00000000e+00, 0.00000000e+00, -1.08098973e+01, -3.20000000e+01, -1.16292455e+01, -1.16822722e+01, -3.92847339e+00, -4.82583470e+00, 0.00000000e+00, 0.0000000000, 1.0000000000, 0.0500040134
          71, 0.00000000e+00, 0.00000000e+00, 0.00000000e+00, 0.00000000e+00, 0.00000000e+00, 0.00000000e+00, 0.00000000e+00, 0.00000000e+00, 0.00000000e+00, 0.00000000e+00, 0.00000000e+00, 0.00000000e+00, -1.08098973e+01, -3.20000000e+01, -1.19787305e+01, -1.23678061e+01, -3.92847339e+00, -4.56749081e+00, 0.00000000e+00, 0.0000000000, 1.0000000000, 0.0507274946
          72, 0.00000000e+00, 0.00000000e+00, 0.00000000e+00, 0.00000000e+00, 0.00000000e+00, 0.00000000e+00, 0.00000000e+00, 0.00000000e+00, 0.00000000e+00, 0.00000000e+00, 0.00000000e+00, 0.00000000e+00, -1.08098973e+01, -3.20000000e+01, -1.17947421e+01, -1.19030966e+01, -3.92847339e+00, -4.72292394e+00, 0.00000000e+00, 0.0000000000, 1.0000000000, 0.0514304956
          73, 0.00000000e+00, 0.00000000e+00, 0.00000000e+00, 0.00000000e+00, 0.00000000e+00, 0.00000000e+00, 0.00000000e+00, 0.00000000e+00, 0.00000000e+00, 0.00000000e+00, 0.00000000e+00, 0.00000000e+00, -1.08098973e+01, -3.20000000e+01, -1.17462871e+01, -1.18193511e+01, -3.92847339e+00, -4.33683732e+00, 0.00000000e+00, 0.0000000000, 1.0000000000, 0.0520939112
          74, 0.00000000e+00, 0.00000000e+00, 0.00000000e+00, 0.00000000e+00, 0.00000000e+00, 0.00000000e+00, 0.00000000e+00, 0.00000000e+00, 0.00000000e+00, 0.00000000e+00, 0.00000000e+00, 0.00000000e+00, -1.08098973e+01, -3.20000000e+01, -1.16777005e+01, -1.16366071e+01, -3.92847339e+00, -4.51853433e+00, 0.00000000e+00, 0.0000000000, 1.0000000000, 0.0528535763
          75, 0.00000000e+00, 0.00000000e+00, 0.00000000e+00, 0.00000000e+00, 0.00000000e+00, 0.00000000e+00, 0.00000000e+00, 0.00000000e+00, 0.00000000e+00, 0.00000000e+00, 0.00000000e+00, 0.00000000e+00, -1.08098973e+01, -3.20000000e+01, -1.17342202e+01, -1.17227888e+01, -3.92847339e+00, -4.58842631e+00, 0.00000000e+00, 0.0000000000, 1.0000000000, 0.0534748793
          76, 0.00000000e+00, 0.00000000e+00, 0.00000000e+00, 0.00000000e+00, 0.00000000e+00, 0.00000000e+00, 0.00000000e+00, 0.00000000e+00, 0.00000000e+00, 0.00000000e+00, 0.00000000e+00, 0.00000000e+00, -1.08098973e+01, -3.20000000e+01, -1.17462871e+01, -1.17657461e+01, -3.92847339e+00, -4.67521490e+00, 0.00000000e+00, 0.0000000000, 1.0000000000, 0.0540612618
          77, 0.00000000e+00, 0.00000000e+00, 0.00000000e+00, 0.00000000e+00, 0.00000000e+00, 0.00000000e+00, 0.00000000e+00, 0.00000000e+00, 0.00000000e+00, 0.00000000e+00, 0.00000000e+00, 0.00000000e+00, -1.08098973e+01, -3.20000000e+01, -1.16917148e+01, -1.16403837e+01, -3.92847339e+00, -4.48201638e+00, 0.00000000e+00, 0.0000000000, 1.0000000000, 0.0547892769
          78, 0.00000000e+00, 0.00000000e+00, 0.00000000e+00, 0.00000000e+00, 0.00000000e+00, 0.00000000e+00, 0.00000000e+00, 0.00000000e+00, 0.00000000e+00, 0.00000000e+00, 0.00000000e+00, 0.00000000e+00, -1.08098973e+01, -3.20000000e+01, -1.14391398e+01, -1.15460797e+01, -3.92847339e+00, -4.19611479e+00, 0.00000000e+00, 0.0000000000, 1.0000000000, 0.0553220590
          79, 0.00000000e+00, 0.00000000e+00, 0.00000000e+00, 0.00000000e+00, 0.00000000e+00, 0.00000000e+00, 0.00000000e+00, 0.00000000e+00, 0.00000000e+00, 0.00000000e+00, 0.00000000e+00, 0.00000000e+00, -1.08098973e+01, -3.20000000e+01, -1.17462871e+01, -1.16481397e+01, -3.92847339e+00, -4.68503072e+00, 0.00000000e+00, 0.0000000000, 1.0000000000, 0.0560515563
          80, 0.00000000e+00, 0.00000000e+00, 0.00000000e+00, 0.00000000e+00, 0.00000000e+00, 0.00000000e+00, 0.00000000e+00, 0.00000000e+00, 0.00000000e+00, 0.00000000e+00, 0.00000000e+00, 0.00000000e+00, -1.08098973e+01, -3.20000000e+01, -1.15183211e+01, -1.16442271e+01, -3.92847339e+00, -4.60897763e+00, 0.00000000e+00, 0.0000000000, 1.0000000000, 0.0568165382