TITLE = "Visualization of the volumetric solution"
VARIABLES = "x","y","Density[0]","Density[1]","Density[2]","Density[3]","Density[4]","Density[5]","Density[6]","Density[7]","Momentum_x","Momentum_y","Energy","Electronic Energy","Total Density","Pressure","Temperature","Tve","Mach","C<sub>p</sub>"
ZONE NODES= 65, ELEMENTS= 48, DATAPACKING=POINT, ZONETYPE=FEQUADRILATERAL
0.000000e+00	0.000000e+00	0.000000e+00	0.000000e+00	0.000000e+00	0.000000e+00	1.884642e+00	0.000000e+00	0.000000e+00	0.000000e+00	2.601443e+03	-5.553155e-16	-1.517158e+07	2.810112e+04	1.884642e+00	1.031049e+05	2.895783e+02	2.881500e+02	4.987654e+00	1.003812e-03	
-5.000000e-02	0.000000e+00	0.000000e+00	0.000000e+00	0.000000e+00	0.000000e+00	1.861287e+00	0.000000e+00	0.000000e+00	0.000000e+00	2.569206e+03	0.000000e+00	-1.498483e+07	2.775288e+04	1.861287e+00	1.013250e+05	2.881500e+02	2.881500e+02	5.000000e+00	2.708193e-15	
9.848077e-01	1.736484e-01	0.000000e+00	0.000000e+00	0.000000e+00	0.000000e+00	1.874425e+00	0.000000e+00	0.000000e+00	0.000000e+00	2.587341e+03	4.652464e-16	-1.508988e+07	2.794878e+04	1.874425e+00	1.023263e+05	2.889579e+02	2.881500e+02	4.993006e+00	5.646835e-04	
9.848077e-01	5.209451e-01	0.000000e+00	0.000000e+00	0.000000e+00	0.000000e+00	1.861287e+00	0.000000e+00	0.000000e+00	0.000000e+00	2.569206e+03	-3.684852e-16	-1.498483e+07	2.775288e+04	1.861287e+00	1.013250e+05	2.881500e+02	2.881500e+02	5.000000e+00	9.273509e-15	
0.000000e+00	1.000000e-01	0.000000e+00	0.000000e+00	0.000000e+00	0.000000e+00	1.861287e+00	0.000000e+00	0.000000e+00	0.000000e+00	2.569206e+03	-1.917842e-15	-1.498483e+07	2.775288e+04	1.861287e+00	1.013250e+05	2.881500e+02	2.881500e+02	5.000000e+00	5.629759e-15	
-5.000000e-02	1.000000e-01	0.000000e+00	0.000000e+00	0.000000e+00	0.000000e+00	1.861287e+00	0.000000e+00	0.000000e+00	0.000000e+00	2.569206e+03	-4.563214e-16	-1.498483e+07	2.775288e+04	1.861287e+00	1.013250e+05	2.881500e+02	2.881500e+02	5.000000e+00	2.724606e-15	
-3.096616e-02	0.000000e+00	0.000000e+00	0.000000e+00	0.000000e+00	0.000000e+00	1.861287e+00	0.000000e+00	0.000000e+00	0.000000e+00	2.569206e+03	0.000000e+00	-1.498483e+07	2.775288e+04	1.861287e+00	1.013250e+05	2.881500e+02	2.881500e+02	5.000000e+00	4.185389e-15	
-1.440672e-02	0.000000e+00	0.000000e+00	0.000000e+00	0.000000e+00	0.000000e+00	1.861287e+00	0.000000e+00	0.000000e+00	0.000000e+00	2.569206e+03	-4.854882e-16	-1.498483e+07	2.775288e+04	1.861287e+00	1.013250e+05	2.881500e+02	2.881500e+02	5.000000e+00	3.807883e-15	
1.055427e-01	1.861004e-02	0.000000e+00	0.000000e+00	0.000000e+00	0.000000e+00	1.890514e+00	0.000000e+00	0.000000e+00	0.000000e+00	2.609549e+03	-1.106920e-15	-1.521854e+07	2.818867e+04	1.890514e+00	1.035525e+05	2.899319e+02	2.881500e+02	4.984612e+00	1.256200e-03	
2.120352e-01	3.738757e-02	0.000000e+00	0.000000e+00	0.000000e+00	0.000000e+00	1.888831e+00	0.000000e+00	0.000000e+00	0.000000e+00	2.607225e+03	0.000000e+00	-1.520508e+07	2.816357e+04	1.888831e+00	1.034242e+05	2.898308e+02	2.881500e+02	4.985481e+00	1.183851e-03	
3.194862e-01	5.633410e-02	0.000000e+00	0.000000e+00	0.000000e+00	0.000000e+00	1.887341e+00	0.000000e+00	0.000000e+00	0.000000e+00	2.605169e+03	0.000000e+00	-1.519316e+07	2.814136e+04	1.887341e+00	1.033106e+05	2.897411e+02	2.881500e+02	4.986253e+00	1.119807e-03	
4.279042e-01	7.545115e-02	0.000000e+00	0.000000e+00	0.000000e+00	0.000000e+00	1.886012e+00	0.000000e+00	0.000000e+00	0.000000e+00	2.603335e+03	9.115944e-16	-1.518254e+07	2.812155e+04	1.886012e+00	1.032094e+05	2.896610e+02	2.881500e+02	4.986942e+00	1.062717e-03	
5.372980e-01	9.474025e-02	0.000000e+00	0.000000e+00	0.000000e+00	0.000000e+00	1.884821e+00	0.000000e+00	0.000000e+00	0.000000e+00	2.601691e+03	-8.599279e-16	-1.517301e+07	2.810379e+04	1.884821e+00	1.031186e+05	2.895891e+02	2.881500e+02	4.987561e+00	1.011508e-03	
6.476764e-01	1.142030e-01	0.000000e+00	0.000000e+00	0.000000e+00	0.000000e+00	1.883746e+00	0.000000e+00	0.000000e+00	0.000000e+00	2.600207e+03	0.000000e+00	-1.516442e+07	2.808776e+04	1.883746e+00	1.030367e+05	2.895242e+02	2.881500e+02	4.988120e+00	9.653152e-04	
7.590482e-01	1.338408e-01	0.000000e+00	0.000000e+00	0.000000e+00	0.000000e+00	1.882772e+00	0.000000e+00	0.000000e+00	0.000000e+00	2.598862e+03	-7.711118e-16	-1.515663e+07	2.807323e+04	1.882772e+00	1.029624e+05	2.894653e+02	2.881500e+02	4.988628e+00	9.234364e-04	
8.714223e-01	1.536554e-01	0.000000e+00	0.000000e+00	0.000000e+00	0.000000e+00	1.881884e+00	0.000000e+00	0.000000e+00	0.000000e+00	2.597637e+03	-7.326675e-16	-1.514953e+07	2.806000e+04	1.881884e+00	1.028948e+05	2.894115e+02	2.881500e+02	4.989091e+00	8.852945e-04	
9.848077e-01	2.560449e-01	0.000000e+00	0.000000e+00	0.000000e+00	0.000000e+00	1.861287e+00	0.000000e+00	0.000000e+00	0.000000e+00	2.569206e+03	0.000000e+00	-1.498483e+07	2.775288e+04	1.861287e+00	1.013250e+05	2.881500e+02	2.881500e+02	5.000000e+00	1.130055e-14	
9.848077e-01	3.413253e-01	0.000000e+00	0.000000e+00	0.000000e+00	0.000000e+00	1.861287e+00	0.000000e+00	0.000000e+00	0.000000e+00	2.569206e+03	2.518030e-16	-1.498483e+07	2.775288e+04	1.861287e+00	1.013250e+05	2.881500e+02	2.881500e+02	5.000000e+00	1.106256e-14	
9.848077e-01	4.295906e-01	0.000000e+00	0.000000e+00	0.000000e+00	0.000000e+00	1.861287e+00	0.000000e+00	0.000000e+00	0.000000e+00	2.569206e+03	-2.382227e-16	-1.498483e+07	2.775288e+04	1.861287e+00	1.013250e+05	2.881500e+02	2.881500e+02	5.000000e+00	1.084098e-14	
8.709344e-01	4.722712e-01	0.000000e+00	0.000000e+00	0.000000e+00	0.000000e+00	1.861287e+00	0.000000e+00	0.000000e+00	0.000000e+00	2.569206e+03	0.000000e+00	-1.498483e+07	2.775288e+04	1.861287e+00	1.013250e+05	2.881500e+02	2.881500e+02	5.000000e+00	1.175192e-14	
7.581998e-01	4.240841e-01	0.000000e+00	0.000000e+00	0.000000e+00	0.000000e+00	1.861287e+00	0.000000e+00	0.000000e+00	0.000000e+00	2.569206e+03	0.000000e+00	-1.498483e+07	2.775288e+04	1.861287e+00	1.013250e+05	2.881500e+02	2.881500e+02	5.000000e+00	1.108718e-14	
6.465926e-01	3.763788e-01	0.000000e+00	0.000000e+00	0.000000e+00	0.000000e+00	1.861287e+00	0.000000e+00	0.000000e+00	0.000000e+00	2.569206e+03	0.000000e+00	-1.498483e+07	2.775288e+04	1.861287e+00	1.013250e+05	2.881500e+02	2.881500e+02	5.000000e+00	1.035679e-14	
5.361014e-01	3.291506e-01	0.000000e+00	0.000000e+00	0.000000e+00	0.000000e+00	1.861287e+00	0.000000e+00	0.000000e+00	0.000000e+00	2.569206e+03	-6.206930e-16	-1.498483e+07	2.775288e+04	1.861287e+00	1.013250e+05	2.881500e+02	2.881500e+02	5.000000e+00	1.039782e-14	
4.267152e-01	2.823947e-01	0.000000e+00	0.000000e+00	0.000000e+00	0.000000e+00	1.861287e+00	0.000000e+00	0.000000e+00	0.000000e+00	2.569206e+03	0.000000e+00	-1.498483e+07	2.775288e+04	1.861287e+00	1.013250e+05	2.881500e+02	2.881500e+02	5.000000e+00	9.609982e-15	
3.184228e-01	2.361063e-01	0.000000e+00	0.000000e+00	0.000000e+00	0.000000e+00	1.861287e+00	0.000000e+00	0.000000e+00	0.000000e+00	2.569206e+03	0.000000e+00	-1.498483e+07	2.775288e+04	1.861287e+00	1.013250e+05	2.881500e+02	2.881500e+02	5.000000e+00	7.976859e-15	
2.112134e-01	1.902808e-01	0.000000e+00	0.000000e+00	0.000000e+00	0.000000e+00	1.861287e+00	0.000000e+00	0.000000e+00	0.000000e+00	2.569206e+03	7.210662e-16	-1.498483e+07	2.775288e+04	1.861287e+00	1.013250e+05	2.881500e+02	2.881500e+02	5.000000e+00	7.861966e-15	
1.050760e-01	1.449136e-01	0.000000e+00	0.000000e+00	0.000000e+00	0.000000e+00	1.861287e+00	0.000000e+00	0.000000e+00	0.000000e+00	2.569206e+03	7.612273e-16	-1.498483e+07	2.775288e+04	1.861287e+00	1.013250e+05	2.881500e+02	2.881500e+02	5.000000e+00	6.113951e-15	
-1.467610e-02	1.000000e-01	0.000000e+00	0.000000e+00	0.000000e+00	0.000000e+00	1.861287e+00	0.000000e+00	0.000000e+00	0.000000e+00	2.569206e+03	8.536166e-16	-1.498483e+07	2.775288e+04	1.861287e+00	1.013250e+05	2.881500e+02	2.881500e+02	5.000000e+00	3.126732e-15	
-3.126009e-02	1.000000e-01	0.000000e+00	0.000000e+00	0.000000e+00	0.000000e+00	1.861287e+00	0.000000e+00	0.000000e+00	0.000000e+00	2.569206e+03	0.000000e+00	-1.498483e+07	2.775288e+04	1.861287e+00	1.013250e+05	2.881500e+02	2.881500e+02	5.000000e+00	4.267456e-15	
-5.000000e-02	7.304491e-02	0.000000e+00	0.000000e+00	0.000000e+00	0.000000e+00	1.861287e+00	0.000000e+00	0.000000e+00	0.000000e+00	2.569206e+03	1.232247e-16	-1.498483e+07	2.775288e+04	1.861287e+00	1.013250e+05	2.881500e+02	2.881500e+02	5.000000e+00	2.839499e-15	
-5.000000e-02	4.743758e-02	0.000000e+00	0.000000e+00	0.000000e+00	0.000000e+00	1.861287e+00	0.000000e+00	0.000000e+00	0.000000e+00	2.569206e+03	-1.292963e-16	-1.498483e+07	2.775288e+04	1.861287e+00	1.013250e+05	2.881500e+02	2.881500e+02	5.000000e+00	2.855913e-15	
-5.000000e-02	2.311062e-02	0.000000e+00	0.000000e+00	0.000000e+00	0.000000e+00	1.861287e+00	0.000000e+00	0.000000e+00	0.000000e+00	2.569206e+03	1.356458e-16	-1.498483e+07	2.775288e+04	1.861287e+00	1.013250e+05	2.881500e+02	2.881500e+02	5.000000e+00	2.847706e-15	
0.000000e+00	7.304491e-02	0.000000e+00	0.000000e+00	0.000000e+00	0.000000e+00	1.861287e+00	0.000000e+00	0.000000e+00	0.000000e+00	2.569206e+03	-2.141685e-16	-1.498483e+07	2.775288e+04	1.861287e+00	1.013250e+05	2.881500e+02	2.881500e+02	5.000000e+00	8.378985e-15	
0.000000e+00	4.743758e-02	0.000000e+00	0.000000e+00	0.000000e+00	0.000000e+00	1.861287e+00	0.000000e+00	0.000000e+00	0.000000e+00	2.569206e+03	8.679305e-16	-1.498483e+07	2.775288e+04	1.861287e+00	1.013250e+05	2.881500e+02	2.881500e+02	5.000000e+00	7.853760e-15	
0.000000e+00	2.311062e-02	0.000000e+00	0.000000e+00	0.000000e+00	0.000000e+00	1.861287e+00	0.000000e+00	0.000000e+00	0.000000e+00	2.569206e+03	7.492559e-16	-1.498483e+07	2.775288e+04	1.861287e+00	1.013250e+05	2.881500e+02	2.881500e+02	5.000000e+00	8.149199e-15	
1.054319e-01	4.802706e-02	0.000000e+00	0.000000e+00	0.000000e+00	0.000000e+00	1.861287e+00	0.000000e+00	0.000000e+00	0.000000e+00	2.569206e+03	7.937039e-16	-1.498483e+07	2.775288e+04	1.861287e+00	1.013250e+05	2.881500e+02	2.881500e+02	5.000000e+00	1.234279e-14	
1.053174e-01	7.883747e-02	0.000000e+00	0.000000e+00	0.000000e+00	0.000000e+00	1.861287e+00	0.000000e+00	0.000000e+00	0.000000e+00	2.569206e+03	0.000000e+00	-1.498483e+07	2.775288e+04	1.861287e+00	1.013250e+05	2.881500e+02	2.881500e+02	5.000000e+00	1.095587e-14	
1.051987e-01	1.111092e-01	0.000000e+00	0.000000e+00	0.000000e+00	0.000000e+00	1.861287e+00	0.000000e+00	0.000000e+00	0.000000e+00	2.569206e+03	6.558438e-16	-1.498483e+07	2.775288e+04	1.861287e+00	1.013250e+05	2.881500e+02	2.881500e+02	5.000000e+00	1.043065e-14	
2.118402e-01	7.317947e-02	0.000000e+00	0.000000e+00	0.000000e+00	0.000000e+00	1.861287e+00	0.000000e+00	0.000000e+00	0.000000e+00	2.569206e+03	7.223743e-16	-1.498483e+07	2.775288e+04	1.861287e+00	1.013250e+05	2.881500e+02	2.881500e+02	5.000000e+00	1.370510e-14	
2.116384e-01	1.105438e-01	0.000000e+00	0.000000e+00	0.000000e+00	0.000000e+00	1.861287e+00	0.000000e+00	0.000000e+00	0.000000e+00	2.569206e+03	0.000000e+00	-1.498483e+07	2.775288e+04	1.861287e+00	1.013250e+05	2.881500e+02	2.881500e+02	5.000000e+00	1.226893e-14	
2.114295e-01	1.495525e-01	0.000000e+00	0.000000e+00	0.000000e+00	0.000000e+00	1.861287e+00	0.000000e+00	0.000000e+00	0.000000e+00	2.569206e+03	-1.206053e-15	-1.498483e+07	2.775288e+04	1.861287e+00	1.013250e+05	2.881500e+02	2.881500e+02	5.000000e+00	1.171909e-14	
3.192339e-01	9.857011e-02	0.000000e+00	0.000000e+00	0.000000e+00	0.000000e+00	1.861287e+00	0.000000e+00	0.000000e+00	0.000000e+00	2.569206e+03	-6.622192e-16	-1.498483e+07	2.775288e+04	1.861287e+00	1.013250e+05	2.881500e+02	2.881500e+02	5.000000e+00	1.409902e-14	
3.189728e-01	1.425597e-01	0.000000e+00	0.000000e+00	0.000000e+00	0.000000e+00	1.861287e+00	0.000000e+00	0.000000e+00	0.000000e+00	2.569206e+03	-6.064571e-16	-1.498483e+07	2.775288e+04	1.861287e+00	1.013250e+05	2.881500e+02	2.881500e+02	5.000000e+00	1.344249e-14	
3.187025e-01	1.883786e-01	0.000000e+00	0.000000e+00	0.000000e+00	0.000000e+00	1.861287e+00	0.000000e+00	0.000000e+00	0.000000e+00	2.569206e+03	5.576326e-16	-1.498483e+07	2.775288e+04	1.861287e+00	1.013250e+05	2.881500e+02	2.881500e+02	5.000000e+00	1.286802e-14	
4.276221e-01	1.242012e-01	0.000000e+00	0.000000e+00	0.000000e+00	0.000000e+00	1.861287e+00	0.000000e+00	0.000000e+00	0.000000e+00	2.569206e+03	0.000000e+00	-1.498483e+07	2.775288e+04	1.861287e+00	1.013250e+05	2.881500e+02	2.881500e+02	5.000000e+00	1.514947e-14	
4.273302e-01	1.748880e-01	0.000000e+00	0.000000e+00	0.000000e+00	0.000000e+00	1.861287e+00	0.000000e+00	0.000000e+00	0.000000e+00	2.569206e+03	5.615956e-16	-1.498483e+07	2.775288e+04	1.861287e+00	1.013250e+05	2.881500e+02	2.881500e+02	5.000000e+00	1.525615e-14	
4.270280e-01	2.275914e-01	0.000000e+00	0.000000e+00	0.000000e+00	0.000000e+00	1.861287e+00	0.000000e+00	0.000000e+00	0.000000e+00	2.569206e+03	-5.182019e-16	-1.498483e+07	2.775288e+04	1.861287e+00	1.013250e+05	2.881500e+02	2.881500e+02	5.000000e+00	1.388564e-14	
5.370142e-01	1.500751e-01	0.000000e+00	0.000000e+00	0.000000e+00	0.000000e+00	1.861287e+00	0.000000e+00	0.000000e+00	0.000000e+00	2.569206e+03	5.663616e-16	-1.498483e+07	2.775288e+04	1.861287e+00	1.013250e+05	2.881500e+02	2.881500e+02	5.000000e+00	1.608503e-14	
5.367203e-01	2.075319e-01	0.000000e+00	0.000000e+00	0.000000e+00	0.000000e+00	1.861287e+00	0.000000e+00	0.000000e+00	0.000000e+00	2.569206e+03	0.000000e+00	-1.498483e+07	2.775288e+04	1.861287e+00	1.013250e+05	2.881500e+02	2.881500e+02	5.000000e+00	1.540387e-14	
5.364162e-01	2.671946e-01	0.000000e+00	0.000000e+00	0.000000e+00	0.000000e+00	1.861287e+00	0.000000e+00	0.000000e+00	0.000000e+00	2.569206e+03	0.000000e+00	-1.498483e+07	2.775288e+04	1.861287e+00	1.013250e+05	2.881500e+02	2.881500e+02	5.000000e+00	1.482120e-14	
6.474193e-01	1.761941e-01	0.000000e+00	0.000000e+00	0.000000e+00	0.000000e+00	1.861287e+00	0.000000e+00	0.000000e+00	0.000000e+00	2.569206e+03	0.000000e+00	-1.498483e+07	2.775288e+04	1.861287e+00	1.013250e+05	2.881500e+02	2.881500e+02	5.000000e+00	1.693852e-14	
6.471531e-01	2.404945e-01	0.000000e+00	0.000000e+00	0.000000e+00	0.000000e+00	1.861287e+00	0.000000e+00	0.000000e+00	0.000000e+00	2.569206e+03	0.000000e+00	-1.498483e+07	2.775288e+04	1.861287e+00	1.013250e+05	2.881500e+02	2.881500e+02	5.000000e+00	1.627378e-14	
6.468777e-01	3.071922e-01	0.000000e+00	0.000000e+00	0.000000e+00	0.000000e+00	1.861287e+00	0.000000e+00	0.000000e+00	0.000000e+00	2.569206e+03	0.000000e+00	-1.498483e+07	2.775288e+04	1.861287e+00	1.013250e+05	2.881500e+02	2.881500e+02	5.000000e+00	1.565007e-14	
7.588469e-01	2.025605e-01	0.000000e+00	0.000000e+00	0.000000e+00	0.000000e+00	1.861287e+00	0.000000e+00	0.000000e+00	0.000000e+00	2.569206e+03	4.933936e-16	-1.498483e+07	2.775288e+04	1.861287e+00	1.013250e+05	2.881500e+02	2.881500e+02	5.000000e+00	1.693852e-14	
7.586386e-01	2.737788e-01	0.000000e+00	0.000000e+00	0.000000e+00	0.000000e+00	1.861287e+00	0.000000e+00	0.000000e+00	0.000000e+00	2.569206e+03	4.577924e-16	-1.498483e+07	2.775288e+04	1.861287e+00	1.013250e+05	2.881500e+02	2.881500e+02	5.000000e+00	1.705341e-14	
7.584230e-01	3.475880e-01	0.000000e+00	0.000000e+00	0.000000e+00	0.000000e+00	1.861287e+00	0.000000e+00	0.000000e+00	0.000000e+00	2.569206e+03	-8.517762e-16	-1.498483e+07	2.775288e+04	1.861287e+00	1.013250e+05	2.881500e+02	2.881500e+02	5.000000e+00	1.645432e-14	
8.713065e-01	2.291766e-01	0.000000e+00	0.000000e+00	0.000000e+00	0.000000e+00	1.861287e+00	0.000000e+00	0.000000e+00	0.000000e+00	2.569206e+03	0.000000e+00	-1.498483e+07	2.775288e+04	1.861287e+00	1.013250e+05	2.881500e+02	2.881500e+02	5.000000e+00	1.845675e-14	
8.711867e-01	3.073880e-01	0.000000e+00	0.000000e+00	0.000000e+00	0.000000e+00	1.861287e+00	0.000000e+00	0.000000e+00	0.000000e+00	2.569206e+03	0.000000e+00	-1.498483e+07	2.775288e+04	1.861287e+00	1.013250e+05	2.881500e+02	2.881500e+02	5.000000e+00	1.778380e-14	
8.710627e-01	3.883862e-01	0.000000e+00	0.000000e+00	0.000000e+00	0.000000e+00	1.861287e+00	0.000000e+00	0.000000e+00	0.000000e+00	2.569206e+03	4.015273e-16	-1.498483e+07	2.775288e+04	1.861287e+00	1.013250e+05	2.881500e+02	2.881500e+02	5.000000e+00	1.717651e-14	
-1.460349e-02	7.304491e-02	0.000000e+00	0.000000e+00	0.000000e+00	0.000000e+00	1.861287e+00	0.000000e+00	0.000000e+00	0.000000e+00	2.569206e+03	-1.206852e-17	-1.498483e+07	2.775288e+04	1.861287e+00	1.013250e+05	2.881500e+02	2.881500e+02	5.000000e+00	4.185389e-15	
-1.453450e-02	4.743758e-02	0.000000e+00	0.000000e+00	0.000000e+00	0.000000e+00	1.861287e+00	0.000000e+00	0.000000e+00	0.000000e+00	2.569206e+03	1.167388e-17	-1.498483e+07	2.775288e+04	1.861287e+00	1.013250e+05	2.881500e+02	2.881500e+02	5.000000e+00	4.168976e-15	
-1.446897e-02	2.311062e-02	0.000000e+00	0.000000e+00	0.000000e+00	0.000000e+00	1.861287e+00	0.000000e+00	0.000000e+00	0.000000e+00	2.569206e+03	2.435915e-16	-1.498483e+07	2.775288e+04	1.861287e+00	1.013250e+05	2.881500e+02	2.881500e+02	5.000000e+00	4.136149e-15	
-3.118086e-02	7.304491e-02	0.000000e+00	0.000000e+00	0.000000e+00	0.000000e+00	1.861287e+00	0.000000e+00	0.000000e+00	0.000000e+00	2.569206e+03	-3.939355e-16	-1.498483e+07	2.775288e+04	1.861287e+00	1.013250e+05	2.881500e+02	2.881500e+02	5.000000e+00	4.636755e-15	
-3.110559e-02	4.743758e-02	0.000000e+00	0.000000e+00	0.000000e+00	0.000000e+00	1.861287e+00	0.000000e+00	0.000000e+00	0.000000e+00	2.569206e+03	1.944345e-16	-1.498483e+07	2.775288e+04	1.861287e+00	1.013250e+05	2.881500e+02	2.881500e+02	5.000000e+00	3.824297e-15	
-3.103409e-02	2.311062e-02	0.000000e+00	0.000000e+00	0.000000e+00	0.000000e+00	1.861287e+00	0.000000e+00	0.000000e+00	0.000000e+00	2.569206e+03	-1.964581e-16	-1.498483e+07	2.775288e+04	1.861287e+00	1.013250e+05	2.881500e+02	2.881500e+02	5.000000e+00	3.824297e-15	
1	9	36	35
35	36	37	34
34	37	38	33
33	38	27	5
9	10	39	36
36	39	40	37
37	40	41	38
38	41	26	27
10	11	42	39
39	42	43	40
40	43	44	41
41	44	25	26
11	12	45	42
42	45	46	43
43	46	47	44
44	47	24	25
12	13	48	45
45	48	49	46
46	49	50	47
47	50	23	24
13	14	51	48
48	51	52	49
49	52	53	50
50	53	22	23
14	15	54	51
51	54	55	52
52	55	56	53
53	56	21	22
15	16	57	54
54	57	58	55
55	58	59	56
56	59	20	21
16	3	17	57
57	17	18	58
58	18	19	59
59	19	4	20
5	28	60	33
33	60	61	34
34	61	62	35
35	62	8	1
28	29	63	60
60	63	64	61
61	64	65	62
62	65	7	8
29	6	30	63
63	30	31	64
64	31	32	65
65	32	2	7
