TITLE = "Visualization of the surface solution"
VARIABLES = "x","y","Density[0]","Density[1]","Density[2]","Density[3]","Density[4]","Density[5]","Density[6]","Density[7]","Momentum_x","Momentum_y","Energy","Electronic Energy","Total Density","Pressure","Temperature","Tve","Mach","C<sub>p</sub>"
ZONE NODES= 5, ELEMENTS= 4, DATAPACKING=POINT, ZONETYPE=FELINESEG
9.848077e-01	1.736484e-01	0.000000e+00	0.000000e+00	0.000000e+00	0.000000e+00	1.874425e+00	0.000000e+00	0.000000e+00	0.000000e+00	2.587341e+03	4.652464e-16	-1.508988e+07	2.794878e+04	1.874425e+00	1.023263e+05	2.889579e+02	2.881500e+02	4.993006e+00	5.646835e-04	
9.848077e-01	5.209451e-01	0.000000e+00	0.000000e+00	0.000000e+00	0.000000e+00	1.861287e+00	0.000000e+00	0.000000e+00	0.000000e+00	2.569206e+03	-3.684852e-16	-1.498483e+07	2.775288e+04	1.861287e+00	1.013250e+05	2.881500e+02	2.881500e+02	5.000000e+00	9.273509e-15	
9.848077e-01	2.560449e-01	0.000000e+00	0.000000e+00	0.000000e+00	0.000000e+00	1.861287e+00	0.000000e+00	0.000000e+00	0.000000e+00	2.569206e+03	0.000000e+00	-1.498483e+07	2.775288e+04	1.861287e+00	1.013250e+05	2.881500e+02	2.881500e+02	5.000000e+00	1.130055e-14	
9.848077e-01	3.413253e-01	0.000000e+00	0.000000e+00	0.000000e+00	0.000000e+00	1.861287e+00	0.000000e+00	0.000000e+00	0.000000e+00	2.569206e+03	2.518030e-16	-1.498483e+07	2.775288e+04	1.861287e+00	1.013250e+05	2.881500e+02	2.881500e+02	5.000000e+00	1.106256e-14	
9.848077e-01	4.295906e-01	0.000000e+00	0.000000e+00	0.000000e+00	0.000000e+00	1.861287e+00	0.000000e+00	0.000000e+00	0.000000e+00	2.569206e+03	-2.382227e-16	-1.498483e+07	2.775288e+04	1.861287e+00	1.013250e+05	2.881500e+02	2.881500e+02	5.000000e+00	1.084098e-14	
1	3
3	4
4	5
5	2
