TITLE = "Visualization of the volumetric solution"
VARIABLES = "x" "y" "Density[0]" "Density[1]" "Momentum_x" "Momentum_y" "Energy" "Electronic Energy" "Total Density" "Pressure" "Temperature" "Tve" "Mach" "C<sub>p</sub>" 
ZONE NODES= 36, ELEMENTS= 25, DATAPACKING=POINT, ZONETYPE=FEQUADRILATERAL
0.000000e+00	0.000000e+00	1.115427e+00	1.126693e-02	8.004789e+01	0.000000e+00	2.837228e+05	1.312854e+01	1.126693e+00	1.013250e+05	3.000000e+02	3.000000e+02	2.000000e-01	-1.023496e-14	
2.000000e-01	0.000000e+00	1.115427e+00	1.126693e-02	8.004789e+01	-3.200340e-14	2.837228e+05	1.312854e+01	1.126693e+00	1.013250e+05	3.000000e+02	3.000000e+02	2.000000e-01	-1.023496e-14	
4.000000e-01	0.000000e+00	1.115427e+00	1.126693e-02	8.004789e+01	-1.600170e-14	2.837228e+05	1.312854e+01	1.126693e+00	1.013250e+05	3.000000e+02	3.000000e+02	2.000000e-01	-1.023496e-14	
6.000000e-01	0.000000e+00	1.115427e+00	1.126693e-02	8.004789e+01	0.000000e+00	2.837228e+05	1.312854e+01	1.126693e+00	1.013250e+05	3.000000e+02	3.000000e+02	2.000000e-01	-1.023496e-14	
8.000000e-01	0.000000e+00	1.115427e+00	1.126693e-02	8.004789e+01	0.000000e+00	2.837228e+05	1.312854e+01	1.126693e+00	1.013250e+05	3.000000e+02	3.000000e+02	2.000000e-01	-1.023496e-14	
1.000000e+00	0.000000e+00	1.115427e+00	1.126693e-02	8.004789e+01	0.000000e+00	2.837228e+05	1.312854e+01	1.126693e+00	1.013250e+05	3.000000e+02	3.000000e+02	2.000000e-01	-1.023496e-14	
0.000000e+00	2.000000e-01	1.115427e+00	1.126693e-02	8.004789e+01	0.000000e+00	2.837228e+05	1.312854e+01	1.126693e+00	1.013250e+05	3.000000e+02	3.000000e+02	2.000000e-01	-1.023496e-14	
2.000000e-01	2.000000e-01	1.115427e+00	1.126693e-02	8.004789e+01	-2.327520e-14	2.837228e+05	1.312854e+01	1.126693e+00	1.013250e+05	3.000000e+02	3.000000e+02	2.000000e-01	-1.023496e-14	
4.000000e-01	2.000000e-01	1.115427e+00	1.126693e-02	8.004789e+01	3.155444e-30	2.837228e+05	1.312854e+01	1.126693e+00	1.013250e+05	3.000000e+02	3.000000e+02	2.000000e-01	-1.023496e-14	
6.000000e-01	2.000000e-01	1.115427e+00	1.126693e-02	8.004789e+01	0.000000e+00	2.837228e+05	1.312854e+01	1.126693e+00	1.013250e+05	3.000000e+02	3.000000e+02	2.000000e-01	-1.023496e-14	
8.000000e-01	2.000000e-01	1.115427e+00	1.126693e-02	8.004789e+01	0.000000e+00	2.837228e+05	1.312854e+01	1.126693e+00	1.013250e+05	3.000000e+02	3.000000e+02	2.000000e-01	-1.023496e-14	
1.000000e+00	2.000000e-01	1.115427e+00	1.126693e-02	8.004789e+01	0.000000e+00	2.837228e+05	1.312854e+01	1.126693e+00	1.013250e+05	3.000000e+02	3.000000e+02	2.000000e-01	-1.023496e-14	
0.000000e+00	4.000000e-01	1.115427e+00	1.126693e-02	8.004789e+01	0.000000e+00	2.837228e+05	1.312854e+01	1.126693e+00	1.013250e+05	3.000000e+02	3.000000e+02	2.000000e-01	-1.023496e-14	
2.000000e-01	4.000000e-01	1.115427e+00	1.126693e-02	8.004789e+01	-2.327520e-14	2.837228e+05	1.312854e+01	1.126693e+00	1.013250e+05	3.000000e+02	3.000000e+02	2.000000e-01	-1.023496e-14	
4.000000e-01	4.000000e-01	1.115427e+00	1.126693e-02	8.004789e+01	-2.327520e-14	2.837228e+05	1.312854e+01	1.126693e+00	1.013250e+05	3.000000e+02	3.000000e+02	2.000000e-01	-1.023496e-14	
6.000000e-01	4.000000e-01	1.115427e+00	1.126693e-02	8.004789e+01	1.163760e-14	2.837228e+05	1.312854e+01	1.126693e+00	1.013250e+05	3.000000e+02	3.000000e+02	2.000000e-01	-1.023496e-14	
8.000000e-01	4.000000e-01	1.115427e+00	1.126693e-02	8.004789e+01	0.000000e+00	2.837228e+05	1.312854e+01	1.126693e+00	1.013250e+05	3.000000e+02	3.000000e+02	2.000000e-01	-1.023496e-14	
1.000000e+00	4.000000e-01	1.115427e+00	1.126693e-02	8.004789e+01	0.000000e+00	2.837228e+05	1.312854e+01	1.126693e+00	1.013250e+05	3.000000e+02	3.000000e+02	2.000000e-01	-1.023496e-14	
0.000000e+00	6.000000e-01	1.115427e+00	1.126693e-02	8.004789e+01	0.000000e+00	2.837228e+05	1.312854e+01	1.126693e+00	1.013250e+05	3.000000e+02	3.000000e+02	2.000000e-01	-1.023496e-14	
2.000000e-01	6.000000e-01	1.115427e+00	1.126693e-02	8.004789e+01	0.000000e+00	2.837228e+05	1.312854e+01	1.126693e+00	1.013250e+05	3.000000e+02	3.000000e+02	2.000000e-01	-1.023496e-14	
4.000000e-01	6.000000e-01	1.115427e+00	1.126693e-02	8.004789e+01	-1.163760e-14	2.837228e+05	1.312854e+01	1.126693e+00	1.013250e+05	3.000000e+02	3.000000e+02	2.000000e-01	-1.023496e-14	
6.000000e-01	6.000000e-01	1.115427e+00	1.126693e-02	8.004789e+01	-1.163760e-14	2.837228e+05	1.312854e+01	1.126693e+00	1.013250e+05	3.000000e+02	3.000000e+02	2.000000e-01	-1.023496e-14	
8.000000e-01	6.000000e-01	1.115427e+00	1.126693e-02	8.004789e+01	0.000000e+00	2.837228e+05	1.312854e+01	1.126693e+00	1.013250e+05	3.000000e+02	3.000000e+02	2.000000e-01	-1.023496e-14	
1.000000e+00	6.000000e-01	1.115427e+00	1.126693e-02	8.004789e+01	0.000000e+00	2.837228e+05	1.312854e+01	1.126693e+00	1.013250e+05	3.000000e+02	3.000000e+02	2.000000e-01	-1.023496e-14	
0.000000e+00	8.000000e-01	1.115427e+00	1.126693e-02	8.004789e+01	0.000000e+00	2.837228e+05	1.312854e+01	1.126693e+00	1.013250e+05	3.000000e+02	3.000000e+02	2.000000e-01	-1.023496e-14	
2.000000e-01	8.000000e-01	1.115427e+00	1.126693e-02	8.004789e+01	0.000000e+00	2.837228e+05	1.312854e+01	1.126693e+00	1.013250e+05	3.000000e+02	3.000000e+02	2.000000e-01	-1.023496e-14	
4.000000e-01	8.000000e-01	1.115427e+00	1.126693e-02	8.004789e+01	0.000000e+00	2.837228e+05	1.312854e+01	1.126693e+00	1.013250e+05	3.000000e+02	3.000000e+02	2.000000e-01	-1.023496e-14	
6.000000e-01	8.000000e-01	1.115427e+00	1.126693e-02	8.004789e+01	0.000000e+00	2.837228e+05	1.312854e+01	1.126693e+00	1.013250e+05	3.000000e+02	3.000000e+02	2.000000e-01	-1.023496e-14	
8.000000e-01	8.000000e-01	1.115427e+00	1.126693e-02	8.004789e+01	0.000000e+00	2.837228e+05	1.312854e+01	1.126693e+00	1.013250e+05	3.000000e+02	3.000000e+02	2.000000e-01	-1.023496e-14	
1.000000e+00	8.000000e-01	1.115427e+00	1.126693e-02	8.004789e+01	0.000000e+00	2.837228e+05	1.312854e+01	1.126693e+00	1.013250e+05	3.000000e+02	3.000000e+02	2.000000e-01	-1.023496e-14	
0.000000e+00	1.000000e+00	1.115427e+00	1.126693e-02	8.004789e+01	0.000000e+00	2.837228e+05	1.312854e+01	1.126693e+00	1.013250e+05	3.000000e+02	3.000000e+02	2.000000e-01	-1.023496e-14	
2.000000e-01	1.000000e+00	1.115427e+00	1.126693e-02	8.004789e+01	0.000000e+00	2.837228e+05	1.312854e+01	1.126693e+00	1.013250e+05	3.000000e+02	3.000000e+02	2.000000e-01	-1.023496e-14	
4.000000e-01	1.000000e+00	1.115427e+00	1.126693e-02	8.004789e+01	0.000000e+00	2.837228e+05	1.312854e+01	1.126693e+00	1.013250e+05	3.000000e+02	3.000000e+02	2.000000e-01	-1.023496e-14	
6.000000e-01	1.000000e+00	1.115427e+00	1.126693e-02	8.004789e+01	0.000000e+00	2.837228e+05	1.312854e+01	1.126693e+00	1.013250e+05	3.000000e+02	3.000000e+02	2.000000e-01	-1.023496e-14	
8.000000e-01	1.000000e+00	1.115427e+00	1.126693e-02	8.004789e+01	0.000000e+00	2.837228e+05	1.312854e+01	1.126693e+00	1.013250e+05	3.000000e+02	3.000000e+02	2.000000e-01	-1.023496e-14	
1.000000e+00	1.000000e+00	1.115427e+00	1.126693e-02	8.004789e+01	0.000000e+00	2.837228e+05	1.312854e+01	1.126693e+00	1.013250e+05	3.000000e+02	3.000000e+02	2.000000e-01	-1.023496e-14	
1	2	8	7
2	3	9	8
3	4	10	9
4	5	11	10
5	6	12	11
7	8	14	13
8	9	15	14
9	10	16	15
10	11	17	16
11	12	18	17
13	14	20	19
14	15	21	20
15	16	22	21
16	17	23	22
17	18	24	23
19	20	26	25
20	21	27	26
21	22	28	27
22	23	29	28
23	24	30	29
25	26	32	31
26	27	33	32
27	28	34	33
28	29	35	34
29	30	36	35
