TITLE = "Visualization of the solution"
VARIABLES = "x","y","Density_0","Density_1","Momentum_x","Momentum_y","Energy","Energy_ve","MassFrac_0","MassFrac_1","Pressure","Temperature_tr","Temperature_ve","Mach","Pressure_Coefficient","Laminar_Viscosity","Skin_Friction_Coefficient_x","Skin_Friction_Coefficient_y","Heat_Flux","Y_Plus"
ZONE NODES= 10000, ELEMENTS= 9801, DATAPACKING=POINT, ZONETYPE=FEQUADRILATERAL
0.000000e+00	-3.800000e-02	6.435933e-06	9.070104e-03	0.000000e+00	0.000000e+00	3.070993e+05	2.566407e-01	7.090735e-04	9.992909e-01	1.562025e+03	2.900171e+02	1.038733e+03	0.000000e+00	2.117547e-02	1.826206e-05	5.642983e-02	-9.016052e-04	2.570183e+06	2.348729e-01	
0.000000e+00	-3.800100e-02	1.126497e-02	4.635743e-03	1.778606e+00	8.599847e-01	1.602934e+05	1.027276e-01	7.084568e-01	2.915432e-01	2.152575e+03	3.531545e+02	2.923511e+02	2.768144e-01	3.761827e-02	2.065940e-05	0.000000e+00	0.000000e+00	0.000000e+00	0.000000e+00	
0.000000e+00	-3.800201e-02	1.646592e-02	4.387027e-03	3.880337e+00	1.155325e+00	1.533307e+05	2.140793e+00	7.896207e-01	2.103793e-01	2.569926e+03	3.430548e+02	3.790917e+02	4.569926e-01	4.923865e-02	2.014848e-05	0.000000e+00	0.000000e+00	0.000000e+00	0.000000e+00	
0.000000e+00	-3.800304e-02	1.917157e-02	3.519376e-03	5.047591e+00	1.164779e+00	1.247104e+05	4.244440e+00	8.448995e-01	1.551005e-01	2.627818e+03	3.377961e+02	4.030434e+02	5.574692e-01	5.085054e-02	1.985776e-05	0.000000e+00	0.000000e+00	0.000000e+00	0.000000e+00	
0.000000e+00	-3.800410e-02	2.201582e-02	2.913774e-03	6.078423e+00	1.212904e+00	1.050043e+05	6.448623e+00	8.831199e-01	1.168801e-01	2.760953e+03	3.340943e+02	4.168940e+02	6.233362e-01	5.455746e-02	1.965094e-05	0.000000e+00	0.000000e+00	0.000000e+00	0.000000e+00	
0.000000e+00	-3.800519e-02	2.435819e-02	2.388268e-03	6.902812e+00	1.257556e+00	8.786949e+04	8.694807e+00	9.107071e-01	8.929287e-02	2.865810e+03	3.314120e+02	4.272661e+02	6.706319e-01	5.747700e-02	1.949945e-05	0.000000e+00	0.000000e+00	0.000000e+00	0.000000e+00	
0.000000e+00	-3.800634e-02	2.641822e-02	1.948574e-03	7.628867e+00	1.311325e+00	7.357416e+04	1.105428e+01	9.313079e-01	6.869207e-02	2.966489e+03	3.296945e+02	4.359817e+02	7.077093e-01	6.028024e-02	1.939601e-05	0.000000e+00	0.000000e+00	0.000000e+00	0.000000e+00	
0.000000e+00	-3.800755e-02	2.816186e-02	1.573991e-03	8.268038e+00	1.366328e+00	6.141587e+04	1.350728e+01	9.470676e-01	5.293243e-02	3.057118e+03	3.289751e+02	4.437567e+02	7.384285e-01	6.280362e-02	1.933840e-05	0.000000e+00	0.000000e+00	0.000000e+00	0.000000e+00	
0.000000e+00	-3.800883e-02	2.963908e-02	1.257380e-03	8.845808e+00	1.420415e+00	5.117252e+04	1.605853e+01	9.593034e-01	4.069656e-02	3.142123e+03	3.292472e+02	4.509373e+02	7.649643e-01	6.517045e-02	1.932405e-05	0.000000e+00	0.000000e+00	0.000000e+00	0.000000e+00	
0.000000e+00	-3.801019e-02	3.087079e-02	9.917207e-04	9.373063e+00	1.470616e+00	4.261500e+04	1.870036e+01	9.688750e-01	3.112500e-02	3.222579e+03	3.304791e+02	4.577174e+02	7.885452e-01	6.741060e-02	1.935011e-05	0.000000e+00	0.000000e+00	0.000000e+00	0.000000e+00	
0.000000e+00	-3.801165e-02	3.188696e-02	7.715946e-04	9.860454e+00	1.515301e+00	3.556913e+04	2.143111e+01	9.763739e-01	2.362611e-02	3.300302e+03	3.326191e+02	4.642168e+02	8.099571e-01	6.957467e-02	1.941340e-05	0.000000e+00	0.000000e+00	0.000000e+00	0.000000e+00	
0.000000e+00	-3.801323e-02	3.271198e-02	5.918357e-04	1.031520e+01	1.553245e+00	2.986651e+04	2.424840e+01	9.822292e-01	1.777081e-02	3.376320e+03	3.356073e+02	4.705150e+02	8.297288e-01	7.169123e-02	1.951071e-05	0.000000e+00	0.000000e+00	0.000000e+00	0.000000e+00	
0.000000e+00	-3.801493e-02	3.336990e-02	4.475202e-04	1.074362e+01	1.583749e+00	2.534605e+04	2.715225e+01	9.867666e-01	1.323342e-02	3.451477e+03	3.393804e+02	4.766669e+02	8.482582e-01	7.378385e-02	1.963887e-05	0.000000e+00	0.000000e+00	0.000000e+00	0.000000e+00	
0.000000e+00	-3.801677e-02	3.388204e-02	3.338413e-04	1.115097e+01	1.606411e+00	2.184948e+04	3.014338e+01	9.902431e-01	9.756911e-03	3.526261e+03	3.438759e+02	4.827123e+02	8.658749e-01	7.586609e-02	1.979487e-05	0.000000e+00	0.000000e+00	0.000000e+00	0.000000e+00	
0.000000e+00	-3.801878e-02	3.426748e-02	2.461609e-04	1.154202e+01	1.621068e+00	1.922354e+04	3.322336e+01	9.928677e-01	7.132278e-03	3.600922e+03	3.490345e+02	4.886806e+02	8.828848e-01	7.794489e-02	1.997591e-05	0.000000e+00	0.000000e+00	0.000000e+00	0.000000e+00	
0.000000e+00	-3.802096e-02	3.454241e-02	1.800753e-04	1.192118e+01	1.627712e+00	1.732220e+04	3.639362e+01	9.948139e-01	5.186128e-03	3.675445e+03	3.548006e+02	4.945943e+02	8.995989e-01	8.001984e-02	2.017940e-05	0.000000e+00	0.000000e+00	0.000000e+00	0.000000e+00	
0.000000e+00	-3.802334e-02	3.471997e-02	1.315021e-04	1.229270e+01	1.626466e+00	1.600970e+04	3.965476e+01	9.962268e-01	3.773214e-03	3.749557e+03	3.611229e+02	5.004711e+02	9.163563e-01	8.208336e-02	2.040294e-05	0.000000e+00	0.000000e+00	0.000000e+00	0.000000e+00	
0.000000e+00	-3.802595e-02	3.480979e-02	9.675765e-05	1.266069e+01	1.617595e+00	1.516316e+04	4.300536e+01	9.972281e-01	2.771906e-03	3.822686e+03	3.679522e+02	5.063256e+02	9.335432e-01	8.411950e-02	2.064431e-05	0.000000e+00	0.000000e+00	0.000000e+00	0.000000e+00	
0.000000e+00	-3.802881e-02	3.481789e-02	7.261744e-05	1.302914e+01	1.601576e+00	1.467449e+04	4.644072e+01	9.979187e-01	2.081295e-03	3.893914e+03	3.752390e+02	5.121707e+02	9.516081e-01	8.610272e-02	2.090131e-05	0.000000e+00	0.000000e+00	0.000000e+00	0.000000e+00	
0.000000e+00	-3.803194e-02	3.474689e-02	5.634972e-05	1.340175e+01	1.579259e+00	1.445156e+04	4.995186e+01	9.983809e-01	1.619094e-03	3.961968e+03	3.829310e+02	5.180178e+02	9.710609e-01	8.799756e-02	2.117170e-05	0.000000e+00	0.000000e+00	0.000000e+00	0.000000e+00	
0.000000e+00	-3.803538e-02	3.459787e-02	4.572233e-05	1.378168e+01	1.552130e+00	1.441878e+04	5.352677e+01	9.986802e-01	1.319792e-03	4.025425e+03	3.909739e+02	5.238780e+02	9.924125e-01	8.976439e-02	2.145327e-05	0.000000e+00	0.000000e+00	0.000000e+00	0.000000e+00	
0.000000e+00	-3.803916e-02	3.437949e-02	3.898822e-05	1.417114e+01	1.522575e+00	1.451901e+04	5.716460e+01	9.988672e-01	1.132770e-03	4.084024e+03	3.993345e+02	5.297613e+02	1.015867e+00	9.139599e-02	2.174456e-05	0.000000e+00	0.000000e+00	0.000000e+00	0.000000e+00	
0.000000e+00	-3.804331e-02	3.412842e-02	3.485557e-05	1.457208e+01	1.493177e+00	1.471896e+04	6.091582e+01	9.989797e-01	1.020264e-03	4.141963e+03	4.080708e+02	5.356766e+02	1.040620e+00	9.300919e-02	2.204737e-05	0.000000e+00	0.000000e+00	0.000000e+00	0.000000e+00	
0.000000e+00	-3.804788e-02	3.385679e-02	3.237011e-05	1.498571e+01	1.463354e+00	1.499033e+04	6.480017e+01	9.990448e-01	9.551758e-04	4.200397e+03	4.172023e+02	5.416313e+02	1.066476e+00	9.463619e-02	2.236211e-05	0.000000e+00	0.000000e+00	0.000000e+00	0.000000e+00	
0.000000e+00	-3.805290e-02	3.357001e-02	3.087566e-05	1.541352e+01	1.431682e+00	1.531334e+04	6.882933e+01	9.990811e-01	9.188945e-04	4.259654e+03	4.267334e+02	5.476329e+02	1.093440e+00	9.628610e-02	2.268870e-05	0.000000e+00	0.000000e+00	0.000000e+00	0.000000e+00	
0.000000e+00	-3.805843e-02	3.327272e-02	2.994729e-05	1.585713e+01	1.396709e+00	1.567623e+04	7.301586e+01	9.991008e-01	8.992461e-04	4.320103e+03	4.366731e+02	5.536883e+02	1.121521e+00	9.796918e-02	2.302723e-05	0.000000e+00	0.000000e+00	0.000000e+00	0.000000e+00	
0.000000e+00	-3.806453e-02	3.296905e-02	2.932490e-05	1.631794e+01	1.357040e+00	1.607290e+04	7.737344e+01	9.991113e-01	8.886772e-04	4.382166e+03	4.470358e+02	5.598039e+02	1.150703e+00	9.969723e-02	2.337796e-05	0.000000e+00	0.000000e+00	0.000000e+00	0.000000e+00	
0.000000e+00	-3.807124e-02	3.266240e-02	2.885855e-05	1.679696e+01	1.311381e+00	1.650092e+04	8.191596e+01	9.991172e-01	8.827604e-04	4.446281e+03	4.578402e+02	5.659853e+02	1.180941e+00	1.014824e-01	2.374132e-05	0.000000e+00	0.000000e+00	0.000000e+00	0.000000e+00	
0.000000e+00	-3.807863e-02	3.235526e-02	2.846702e-05	1.729464e+01	1.258571e+00	1.695991e+04	8.665627e+01	9.991209e-01	8.790533e-04	4.512839e+03	4.691084e+02	5.722373e+02	1.212167e+00	1.033356e-01	2.411781e-05	0.000000e+00	0.000000e+00	0.000000e+00	0.000000e+00	
0.000000e+00	-3.808677e-02	3.204903e-02	2.810900e-05	1.781071e+01	1.197639e+00	1.745039e+04	9.160450e+01	9.991237e-01	8.762941e-04	4.582132e+03	4.808652e+02	5.785626e+02	1.244290e+00	1.052649e-01	2.450805e-05	0.000000e+00	0.000000e+00	0.000000e+00	0.000000e+00	
0.000000e+00	-3.809575e-02	3.174390e-02	2.776452e-05	1.834403e+01	1.127868e+00	1.797295e+04	9.676624e+01	9.991261e-01	8.738765e-04	4.654299e+03	4.931360e+02	5.849620e+02	1.277202e+00	1.072743e-01	2.491262e-05	0.000000e+00	0.000000e+00	0.000000e+00	0.000000e+00	
0.000000e+00	-3.810564e-02	3.143888e-02	2.742399e-05	1.889251e+01	1.048873e+00	1.852763e+04	1.021405e+02	9.991285e-01	8.715353e-04	4.729292e+03	5.059456e+02	5.914339e+02	1.310780e+00	1.093623e-01	2.533211e-05	0.000000e+00	0.000000e+00	0.000000e+00	0.000000e+00	
0.000000e+00	-3.811655e-02	3.113184e-02	2.708244e-05	1.945295e+01	9.606659e-01	1.911363e+04	1.077182e+02	9.991308e-01	8.691714e-04	4.806844e+03	5.193164e+02	5.979731e+02	1.344888e+00	1.115216e-01	2.576696e-05	0.000000e+00	0.000000e+00	0.000000e+00	0.000000e+00	
0.000000e+00	-3.812857e-02	3.081983e-02	2.673667e-05	2.002112e+01	8.636814e-01	1.972906e+04	1.134802e+02	9.991332e-01	8.667634e-04	4.886477e+03	5.332668e+02	6.045713e+02	1.379379e+00	1.137388e-01	2.621752e-05	0.000000e+00	0.000000e+00	0.000000e+00	0.000000e+00	
0.000000e+00	-3.814182e-02	3.049937e-02	2.638424e-05	2.059180e+01	7.587743e-01	2.037089e+04	1.193972e+02	9.991357e-01	8.643272e-04	4.967526e+03	5.478104e+02	6.112161e+02	1.414095e+00	1.159955e-01	2.668394e-05	0.000000e+00	0.000000e+00	0.000000e+00	0.000000e+00	
0.000000e+00	-3.815643e-02	3.016687e-02	2.602320e-05	2.115891e+01	6.471762e-01	2.103499e+04	1.254287e+02	9.991381e-01	8.618981e-04	5.049182e+03	5.629552e+02	6.178910e+02	1.448861e+00	1.182691e-01	2.716621e-05	0.000000e+00	0.000000e+00	0.000000e+00	0.000000e+00	
0.000000e+00	-3.817254e-02	2.981894e-02	2.565216e-05	2.171573e+01	5.304354e-01	2.171617e+04	1.315239e+02	9.991405e-01	8.595246e-04	5.130542e+03	5.787038e+02	6.245751e+02	1.483484e+00	1.205344e-01	2.766412e-05	0.000000e+00	0.000000e+00	0.000000e+00	0.000000e+00	
0.000000e+00	-3.819031e-02	2.945270e-02	2.527047e-05	2.225517e+01	4.103399e-01	2.240836e+04	1.376220e+02	9.991427e-01	8.572663e-04	5.210663e+03	5.950523e+02	6.312435e+02	1.517759e+00	1.227652e-01	2.817730e-05	0.000000e+00	0.000000e+00	0.000000e+00	0.000000e+00	
0.000000e+00	-3.820989e-02	2.906608e-02	2.487836e-05	2.277011e+01	2.888206e-01	2.310481e+04	1.436540e+02	9.991448e-01	8.551921e-04	5.288610e+03	6.119896e+02	6.378666e+02	1.551471e+00	1.249355e-01	2.870512e-05	0.000000e+00	0.000000e+00	0.000000e+00	0.000000e+00	
0.000000e+00	-3.823148e-02	2.865805e-02	2.447709e-05	2.325374e+01	1.678413e-01	2.379833e+04	1.495447e+02	9.991466e-01	8.533798e-04	5.363510e+03	6.294960e+02	6.444110e+02	1.584399e+00	1.270210e-01	2.924676e-05	0.000000e+00	0.000000e+00	0.000000e+00	0.000000e+00	
0.000000e+00	-3.825530e-02	2.822872e-02	2.406894e-05	2.369999e+01	4.929830e-02	2.448164e+04	1.552150e+02	9.991481e-01	8.519139e-04	5.434594e+03	6.475417e+02	6.508392e+02	1.616325e+00	1.290002e-01	2.980106e-05	0.000000e+00	0.000000e+00	0.000000e+00	0.000000e+00	
0.000000e+00	-3.828155e-02	2.777941e-02	2.365716e-05	2.410380e+01	-6.506524e-02	2.514761e+04	1.605848e+02	9.991491e-01	8.508832e-04	5.501224e+03	6.660841e+02	6.571097e+02	1.647043e+00	1.308554e-01	3.036655e-05	0.000000e+00	0.000000e+00	0.000000e+00	0.000000e+00	
0.000000e+00	-3.831051e-02	2.731269e-02	2.324587e-05	2.446149e+01	-1.737540e-01	2.578970e+04	1.655762e+02	9.991496e-01	8.503777e-04	5.562925e+03	6.850652e+02	6.631779e+02	1.676367e+00	1.325733e-01	3.094130e-05	0.000000e+00	0.000000e+00	0.000000e+00	0.000000e+00	
0.000000e+00	-3.834243e-02	2.683238e-02	2.283995e-05	2.477101e+01	-2.756146e-01	2.640223e+04	1.701171e+02	9.991495e-01	8.504845e-04	5.619418e+03	7.044095e+02	6.689963e+02	1.704137e+00	1.341463e-01	3.152295e-05	0.000000e+00	0.000000e+00	0.000000e+00	0.000000e+00	
0.000000e+00	-3.837764e-02	2.634353e-02	2.244491e-05	2.503217e+01	-3.699405e-01	2.698084e+04	1.741449e+02	9.991487e-01	8.512833e-04	5.670672e+03	7.240239e+02	6.745150e+02	1.730216e+00	1.355733e-01	3.210865e-05	0.000000e+00	0.000000e+00	0.000000e+00	0.000000e+00	
0.000000e+00	-3.841646e-02	2.585243e-02	2.206684e-05	2.524676e+01	-4.566102e-01	2.752291e+04	1.776110e+02	9.991472e-01	8.528411e-04	5.716977e+03	7.437998e+02	6.796830e+02	1.754491e+00	1.368626e-01	3.269519e-05	0.000000e+00	0.000000e+00	0.000000e+00	0.000000e+00	
0.000000e+00	-3.845927e-02	2.536666e-02	2.171233e-05	2.541872e+01	-5.362489e-01	2.802804e+04	1.804856e+02	9.991448e-01	8.552076e-04	5.759058e+03	7.636196e+02	6.844491e+02	1.776850e+00	1.380343e-01	3.327918e-05	0.000000e+00	0.000000e+00	0.000000e+00	0.000000e+00	
0.000000e+00	-3.850648e-02	2.489408e-02	2.138768e-05	2.555347e+01	-6.099164e-01	2.849747e+04	1.827535e+02	9.991416e-01	8.584096e-04	5.797867e+03	7.833545e+02	6.887635e+02	1.797208e+00	1.391149e-01	3.385696e-05	0.000000e+00	0.000000e+00	0.000000e+00	0.000000e+00	
0.000000e+00	-3.855855e-02	2.444609e-02	2.110167e-05	2.565947e+01	-6.808546e-01	2.893767e+04	1.844420e+02	9.991376e-01	8.624478e-04	5.835950e+03	8.029433e+02	6.925791e+02	1.815289e+00	1.401752e-01	3.442696e-05	0.000000e+00	0.000000e+00	0.000000e+00	0.000000e+00	
0.000000e+00	-3.861596e-02	2.403453e-02	2.086310e-05	2.574731e+01	-7.533425e-01	2.935795e+04	1.856006e+02	9.991327e-01	8.672941e-04	5.876251e+03	8.223244e+02	6.958534e+02	1.830856e+00	1.412973e-01	3.498759e-05	0.000000e+00	0.000000e+00	0.000000e+00	0.000000e+00	
0.000000e+00	-3.867927e-02	2.366936e-02	2.067882e-05	2.582773e+01	-8.313116e-01	2.976793e+04	1.862824e+02	9.991271e-01	8.728909e-04	5.921365e+03	8.414125e+02	6.985496e+02	1.843784e+00	1.425535e-01	3.553661e-05	0.000000e+00	0.000000e+00	0.000000e+00	0.000000e+00	
0.000000e+00	-3.874908e-02	2.335810e-02	2.055340e-05	2.591049e+01	-9.179258e-01	3.017637e+04	1.865360e+02	9.991208e-01	8.791525e-04	5.973383e+03	8.601041e+02	7.006377e+02	1.854045e+00	1.440018e-01	3.607133e-05	0.000000e+00	0.000000e+00	0.000000e+00	0.000000e+00	
0.000000e+00	-3.882607e-02	2.310462e-02	2.048809e-05	2.600298e+01	-1.014838e+00	3.058924e+04	1.863921e+02	9.991140e-01	8.859673e-04	6.033346e+03	8.782571e+02	7.020952e+02	1.861764e+00	1.456714e-01	3.658797e-05	0.000000e+00	0.000000e+00	0.000000e+00	0.000000e+00	
0.000000e+00	-3.891097e-02	2.290904e-02	2.048072e-05	2.610978e+01	-1.121988e+00	3.100884e+04	1.858588e+02	9.991068e-01	8.932028e-04	6.101083e+03	8.956864e+02	7.029079e+02	1.867215e+00	1.475574e-01	3.708162e-05	0.000000e+00	0.000000e+00	0.000000e+00	0.000000e+00	
0.000000e+00	-3.900460e-02	2.276883e-02	2.052661e-05	2.623314e+01	-1.238082e+00	3.143460e+04	1.849293e+02	9.990993e-01	9.007102e-04	6.175520e+03	9.121836e+02	7.030704e+02	1.870777e+00	1.496299e-01	3.754677e-05	0.000000e+00	0.000000e+00	0.000000e+00	0.000000e+00	
0.000000e+00	-3.910784e-02	2.268082e-02	2.062044e-05	2.637449e+01	-1.361669e+00	3.186539e+04	1.835979e+02	9.990917e-01	9.083316e-04	6.255420e+03	9.275567e+02	7.025865e+02	1.872829e+00	1.518546e-01	3.797843e-05	0.000000e+00	0.000000e+00	0.000000e+00	0.000000e+00	
0.000000e+00	-3.922170e-02	2.264284e-02	2.075778e-05	2.653568e+01	-1.492098e+00	3.230162e+04	1.818744e+02	9.990841e-01	9.159085e-04	6.340049e+03	9.416682e+02	7.014696e+02	1.873680e+00	1.542110e-01	3.837318e-05	0.000000e+00	0.000000e+00	0.000000e+00	0.000000e+00	
0.000000e+00	-3.934726e-02	2.265442e-02	2.093593e-05	2.671958e+01	-1.630020e+00	3.274638e+04	1.797889e+02	9.990767e-01	9.232899e-04	6.429544e+03	9.544586e+02	6.997419e+02	1.873524e+00	1.567028e-01	3.872977e-05	0.000000e+00	0.000000e+00	0.000000e+00	0.000000e+00	
0.000000e+00	-3.948572e-02	2.271688e-02	2.115414e-05	2.693022e+01	-1.777512e+00	3.320571e+04	1.773906e+02	9.990697e-01	9.303420e-04	6.525015e+03	9.659543e+02	6.974337e+02	1.872434e+00	1.593610e-01	3.904931e-05	0.000000e+00	0.000000e+00	0.000000e+00	0.000000e+00	
0.000000e+00	-3.963841e-02	2.283237e-02	2.141295e-05	2.717183e+01	-1.937545e+00	3.368732e+04	1.747370e+02	9.990630e-01	9.369542e-04	6.628205e+03	9.762540e+02	6.945814e+02	1.870392e+00	1.622341e-01	3.933485e-05	0.000000e+00	0.000000e+00	0.000000e+00	0.000000e+00	
0.000000e+00	-3.980679e-02	2.300297e-02	2.171330e-05	2.744803e+01	-2.113453e+00	3.419912e+04	1.718825e+02	9.990570e-01	9.430444e-04	6.741117e+03	9.855092e+02	6.912246e+02	1.867331e+00	1.653780e-01	3.959083e-05	0.000000e+00	0.000000e+00	0.000000e+00	0.000000e+00	
0.000000e+00	-3.999247e-02	2.322949e-02	2.205550e-05	2.776132e+01	-2.308271e+00	3.474766e+04	1.688679e+02	9.990514e-01	9.485604e-04	6.865306e+03	9.938664e+02	6.874047e+02	1.863242e+00	1.688358e-01	3.982149e-05	0.000000e+00	0.000000e+00	0.000000e+00	0.000000e+00	
0.000000e+00	-4.019724e-02	2.351207e-02	2.243966e-05	2.811342e+01	-2.524762e+00	3.533851e+04	1.657228e+02	9.990465e-01	9.534790e-04	7.002048e+03	1.001470e+03	6.831618e+02	1.858153e+00	1.726431e-01	4.003095e-05	0.000000e+00	0.000000e+00	0.000000e+00	0.000000e+00	
0.000000e+00	-4.042305e-02	2.385121e-02	2.286666e-05	2.850626e+01	-2.765892e+00	3.597771e+04	1.624725e+02	9.990422e-01	9.578031e-04	7.152713e+03	1.008464e+03	6.785338e+02	1.852102e+00	1.768381e-01	4.022330e-05	0.000000e+00	0.000000e+00	0.000000e+00	0.000000e+00	
0.000000e+00	-4.067207e-02	2.424836e-02	2.333864e-05	2.894235e+01	-3.035116e+00	3.667238e+04	1.591402e+02	9.990384e-01	9.615576e-04	7.318986e+03	1.014998e+03	6.735540e+02	1.845107e+00	1.814677e-01	4.040271e-05	0.000000e+00	0.000000e+00	0.000000e+00	0.000000e+00	
0.000000e+00	-4.094668e-02	2.470033e-02	2.385352e-05	2.941978e+01	-3.332946e+00	3.742262e+04	1.557094e+02	9.990352e-01	9.647850e-04	7.500665e+03	1.021153e+03	6.682500e+02	1.837325e+00	1.865262e-01	4.057148e-05	0.000000e+00	0.000000e+00	0.000000e+00	0.000000e+00	
0.000000e+00	-4.124951e-02	2.520539e-02	2.441082e-05	2.993733e+01	-3.660801e+00	3.823006e+04	1.521673e+02	9.990325e-01	9.675389e-04	7.698152e+03	1.027033e+03	6.626430e+02	1.828832e+00	1.920249e-01	4.073247e-05	0.000000e+00	0.000000e+00	0.000000e+00	0.000000e+00	
0.000000e+00	-4.158346e-02	2.576574e-02	2.501393e-05	3.049685e+01	-4.022496e+00	3.910141e+04	1.485179e+02	9.990301e-01	9.698796e-04	7.913294e+03	1.032771e+03	6.567472e+02	1.819606e+00	1.980151e-01	4.088936e-05	0.000000e+00	0.000000e+00	0.000000e+00	0.000000e+00	
0.000000e+00	-4.195173e-02	2.638273e-02	2.566551e-05	3.109937e+01	-4.421184e+00	4.004177e+04	1.447495e+02	9.990281e-01	9.718694e-04	8.147437e+03	1.038458e+03	6.505691e+02	1.809684e+00	2.045344e-01	4.104465e-05	0.000000e+00	0.000000e+00	0.000000e+00	0.000000e+00	
0.000000e+00	-4.235785e-02	2.705793e-02	2.636842e-05	3.174602e+01	-4.860026e+00	4.105618e+04	1.408421e+02	9.990264e-01	9.735685e-04	8.401842e+03	1.044158e+03	6.441068e+02	1.799125e+00	2.116179e-01	4.120010e-05	0.000000e+00	0.000000e+00	0.000000e+00	0.000000e+00	
0.000000e+00	-4.280571e-02	2.779329e-02	2.712582e-05	3.243822e+01	-5.342274e+00	4.214981e+04	1.367690e+02	9.990250e-01	9.750330e-04	8.677731e+03	1.049908e+03	6.373498e+02	1.788014e+00	2.192995e-01	4.135672e-05	0.000000e+00	0.000000e+00	0.000000e+00	0.000000e+00	
0.000000e+00	-4.329959e-02	2.859107e-02	2.794108e-05	3.317774e+01	-5.871237e+00	4.332799e+04	1.324957e+02	9.990237e-01	9.763119e-04	8.976248e+03	1.055719e+03	6.302789e+02	1.776460e+00	2.276112e-01	4.151479e-05	0.000000e+00	0.000000e+00	0.000000e+00	0.000000e+00	
0.000000e+00	-4.384422e-02	2.945379e-02	2.881769e-05	3.396677e+01	-6.450255e+00	4.459618e+04	1.279809e+02	9.990226e-01	9.774472e-04	9.298402e+03	1.061573e+03	6.228654e+02	1.764605e+00	2.365810e-01	4.167384e-05	0.000000e+00	0.000000e+00	0.000000e+00	0.000000e+00	
0.000000e+00	-4.444483e-02	3.038421e-02	2.975925e-05	3.480814e+01	-7.082699e+00	4.596007e+04	1.231764e+02	9.990215e-01	9.784730e-04	9.645023e+03	1.067425e+03	6.150704e+02	1.752627e+00	2.462320e-01	4.183260e-05	0.000000e+00	0.000000e+00	0.000000e+00	0.000000e+00	
0.000000e+00	-4.510716e-02	3.138546e-02	3.076955e-05	3.570565e+01	-7.772076e+00	4.742584e+04	1.180286e+02	9.990206e-01	9.794158e-04	1.001673e+04	1.073195e+03	6.068443e+02	1.740750e+00	2.565816e-01	4.198897e-05	0.000000e+00	0.000000e+00	0.000000e+00	0.000000e+00	
0.000000e+00	-4.583756e-02	3.246120e-02	3.185278e-05	3.666460e+01	-8.522232e+00	4.900065e+04	1.124807e+02	9.990197e-01	9.802952e-04	1.041395e+04	1.078776e+03	5.981252e+02	1.729248e+00	2.676413e-01	4.214001e-05	0.000000e+00	0.000000e+00	0.000000e+00	0.000000e+00	
0.000000e+00	-4.664303e-02	3.361604e-02	3.301391e-05	3.769250e+01	-9.337703e+00	5.069329e+04	1.064763e+02	9.990189e-01	9.811244e-04	1.083690e+04	1.084022e+03	5.888381e+02	1.718451e+00	2.794178e-01	4.228185e-05	0.000000e+00	0.000000e+00	0.000000e+00	0.000000e+00	
0.000000e+00	-4.753126e-02	3.485607e-02	3.425920e-05	3.880001e+01	-1.022425e+01	5.251520e+04	9.996378e+01	9.990181e-01	9.819111e-04	1.128573e+04	1.088755e+03	5.788938e+02	1.708754e+00	2.919145e-01	4.240965e-05	0.000000e+00	0.000000e+00	0.000000e+00	0.000000e+00	
0.000000e+00	-4.851079e-02	3.618953e-02	3.559690e-05	4.000191e+01	-1.118958e+01	5.448164e+04	9.290404e+01	9.990173e-01	9.826576e-04	1.176055e+04	1.092755e+03	5.681895e+02	1.700624e+00	3.051351e-01	4.251759e-05	0.000000e+00	0.000000e+00	0.000000e+00	0.000000e+00	
0.000000e+00	-4.959097e-02	3.762772e-02	3.703806e-05	4.131827e+01	-1.224427e+01	5.661319e+04	8.528021e+01	9.990166e-01	9.833613e-04	1.226168e+04	1.095771e+03	5.566105e+02	1.694590e+00	3.190883e-01	4.259891e-05	0.000000e+00	0.000000e+00	0.000000e+00	0.000000e+00	
0.000000e+00	-5.078217e-02	3.918586e-02	3.859745e-05	4.277534e+01	-1.340281e+01	5.893713e+04	7.711133e+01	9.990160e-01	9.840148e-04	1.278985e+04	1.097522e+03	5.440366e+02	1.691241e+00	3.337940e-01	4.264608e-05	0.000000e+00	0.000000e+00	0.000000e+00	0.000000e+00	
0.000000e+00	-5.209579e-02	4.088418e-02	4.029448e-05	4.440616e+01	-1.468488e+01	6.148912e+04	6.846893e+01	9.990154e-01	9.846060e-04	1.334652e+04	1.097714e+03	5.303531e+02	1.691184e+00	3.492936e-01	4.265128e-05	0.000000e+00	0.000000e+00	0.000000e+00	0.000000e+00	
0.000000e+00	-5.354440e-02	4.274837e-02	4.215373e-05	4.625016e+01	-1.611617e+01	6.431371e+04	5.949267e+01	9.990149e-01	9.851182e-04	1.393425e+04	1.096074e+03	5.154694e+02	1.694998e+00	3.656578e-01	4.260709e-05	0.000000e+00	0.000000e+00	0.000000e+00	0.000000e+00	
0.000000e+00	-5.514189e-02	4.481009e-02	4.420531e-05	4.835208e+01	-1.772918e+01	6.746485e+04	5.040060e+01	9.990145e-01	9.855314e-04	1.455707e+04	1.092380e+03	4.993442e+02	1.703159e+00	3.829991e-01	4.250751e-05	0.000000e+00	0.000000e+00	0.000000e+00	0.000000e+00	
0.000000e+00	-5.690355e-02	4.710581e-02	4.648387e-05	5.075887e+01	-1.956275e+01	7.100372e+04	4.148222e+01	9.990142e-01	9.858242e-04	1.522063e+04	1.086510e+03	4.820131e+02	1.715947e+00	4.014747e-01	4.234908e-05	0.000000e+00	0.000000e+00	0.000000e+00	0.000000e+00	
0.000000e+00	-5.884626e-02	4.967619e-02	4.902794e-05	5.351702e+01	-2.166157e+01	7.499723e+04	3.306987e+01	9.990140e-01	9.859775e-04	1.593242e+04	1.078472e+03	4.636119e+02	1.733384e+00	4.212934e-01	4.213186e-05	0.000000e+00	0.000000e+00	0.000000e+00	0.000000e+00	
0.000000e+00	-6.098862e-02	5.256332e-02	5.187744e-05	5.666873e+01	-2.407396e+01	7.951360e+04	2.548324e+01	9.990140e-01	9.859784e-04	1.670127e+04	1.068420e+03	4.443804e+02	1.755205e+00	4.427005e-01	4.185967e-05	0.000000e+00	0.000000e+00	0.000000e+00	0.000000e+00	
0.000000e+00	-6.335114e-02	5.580914e-02	5.507234e-05	6.025207e+01	-2.685029e+01	8.462044e+04	1.896390e+01	9.990142e-01	9.858250e-04	1.753628e+04	1.056593e+03	4.246346e+02	1.780978e+00	4.659500e-01	4.153865e-05	0.000000e+00	0.000000e+00	0.000000e+00	0.000000e+00	
0.000000e+00	-6.595646e-02	5.946331e-02	5.866065e-05	6.431344e+01	-3.004943e+01	9.039824e+04	1.362381e+01	9.990145e-01	9.855294e-04	1.844779e+04	1.043208e+03	4.046899e+02	1.810325e+00	4.913291e-01	4.117434e-05	0.000000e+00	0.000000e+00	0.000000e+00	0.000000e+00	
0.000000e+00	-6.882953e-02	6.360175e-02	6.271714e-05	6.893376e+01	-3.375585e+01	9.697175e+04	9.430124e+00	9.990149e-01	9.851201e-04	1.944991e+04	1.028312e+03	3.847352e+02	1.843258e+00	5.192316e-01	4.076762e-05	0.000000e+00	0.000000e+00	0.000000e+00	0.000000e+00	
0.000000e+00	-7.199786e-02	6.816179e-02	6.718149e-05	7.412870e+01	-3.794287e+01	1.042758e+05	6.226854e+00	9.990154e-01	9.846475e-04	2.049322e+04	1.010987e+03	3.647214e+02	1.881968e+00	5.482805e-01	4.029287e-05	0.000000e+00	0.000000e+00	0.000000e+00	0.000000e+00	
0.000000e+00	-7.549180e-02	7.436745e-02	7.326412e-05	8.105939e+01	-4.370703e+01	1.142020e+05	3.905676e+00	9.990158e-01	9.841943e-04	2.192607e+04	9.914136e+02	3.442502e+02	1.926297e+00	5.881758e-01	3.975420e-05	0.000000e+00	0.000000e+00	0.000000e+00	0.000000e+00	
0.000000e+00	-7.934481e-02	7.858531e-02	7.740814e-05	8.681567e+01	-4.796125e+01	1.213456e+05	2.103129e+00	9.990159e-01	9.840512e-04	2.250356e+04	9.629125e+02	3.222237e+02	1.992112e+00	6.042548e-01	3.896537e-05	0.000000e+00	0.000000e+00	0.000000e+00	0.000000e+00	
0.000000e+00	-8.359379e-02	9.186166e-02	9.051354e-05	1.023537e+02	-6.050690e+01	1.429263e+05	1.072628e+00	9.990156e-01	9.843545e-04	2.522405e+04	9.233307e+02	2.987095e+02	2.086330e+00	6.800020e-01	3.786064e-05	0.000000e+00	0.000000e+00	0.000000e+00	0.000000e+00	
0.000000e+00	-8.827944e-02	1.106029e-01	1.095943e-04	1.201160e+02	-7.902289e+01	1.723173e+05	1.145148e-01	9.990101e-01	9.899001e-04	3.013333e+04	9.161208e+02	2.462221e+02	2.103591e+00	8.166923e-01	3.765826e-05	0.000000e+00	0.000000e+00	0.000000e+00	0.000000e+00	
0.000000e+00	-9.344662e-02	3.812118e-02	3.809133e-05	5.557670e+01	-1.538992e+01	6.265524e+04	3.500015e-05	9.990018e-01	9.982196e-04	7.125633e+03	6.285240e+02	1.631495e+02	2.955364e+00	1.760841e-01	2.921761e-05	0.000000e+00	0.000000e+00	0.000000e+00	0.000000e+00	
0.000000e+00	-9.914483e-02	2.155038e-02	2.155024e-05	3.936398e+01	-1.978350e-03	3.864470e+04	1.028856e-06	9.990010e-01	9.989946e-04	8.027823e+02	1.252584e+02	1.280762e+02	7.993592e+00	3.570275e-05	1.074305e-05	0.000000e+00	0.000000e+00	0.000000e+00	0.000000e+00	
0.000000e+00	-1.054287e-01	2.154857e-02	2.155351e-05	3.936235e+01	-1.524994e-04	3.864230e+04	6.070167e-08	9.990008e-01	9.992298e-04	8.017668e+02	1.251104e+02	1.280762e+02	7.998657e+00	7.429018e-06	1.073572e-05	0.000000e+00	0.000000e+00	0.000000e+00	0.000000e+00	
0.000000e+00	-1.123583e-01	2.154844e-02	2.155918e-05	3.936231e+01	-9.385321e-05	3.864234e+04	3.540463e-08	9.990005e-01	9.994986e-04	8.016504e+02	1.250930e+02	1.280762e+02	7.999252e+00	4.188840e-06	1.073486e-05	0.000000e+00	0.000000e+00	0.000000e+00	0.000000e+00	
0.000000e+00	-1.200000e-01	2.154838e-02	2.156513e-05	3.936225e+01	-3.632175e-05	3.864232e+04	3.530913e-08	9.990002e-01	9.997771e-04	8.015668e+02	1.250802e+02	1.280762e+02	7.999667e+00	1.860477e-06	1.073422e-05	0.000000e+00	0.000000e+00	0.000000e+00	0.000000e+00	
-9.998724e-07	-3.799998e-02	4.171876e-02	1.695076e-02	0.000000e+00	0.000000e+00	5.832268e+05	3.603002e-01	7.110807e-01	2.889193e-01	6.668166e+03	2.970981e+02	2.909879e+02	0.000000e+00	1.633468e-01	1.841198e-05	4.419515e-02	-7.061261e-04	8.139072e+05	5.127529e-01	
-1.029232e-06	-3.800096e-02	2.075634e-02	6.505813e-03	2.297724e+00	-1.100334e-01	2.255264e+05	1.324097e+00	7.613610e-01	2.386390e-01	3.231099e+03	3.223868e+02	3.511746e+02	2.019554e-01	6.764783e-02	1.937878e-05	0.000000e+00	0.000000e+00	0.000000e+00	0.000000e+00	
-1.058873e-06	-3.800195e-02	2.338679e-02	5.307782e-03	4.222059e+00	4.666318e-01	1.859005e+05	3.330244e+00	8.150249e-01	1.849751e-01	3.309867e+03	3.279694e+02	3.829823e+02	3.610886e-01	6.984098e-02	1.952558e-05	0.000000e+00	0.000000e+00	0.000000e+00	0.000000e+00	
-1.089079e-06	-3.800295e-02	2.396310e-02	4.003744e-03	5.253585e+00	7.144738e-01	1.420404e+05	5.203553e+00	8.568396e-01	1.431604e-01	3.114796e+03	3.282546e+02	4.021196e+02	4.726444e-01	6.440956e-02	1.947238e-05	0.000000e+00	0.000000e+00	0.000000e+00	0.000000e+00	
-1.120140e-06	-3.800399e-02	2.576195e-02	3.221513e-03	6.230865e+00	9.083027e-01	1.161282e+05	7.327453e+00	8.888499e-01	1.111501e-01	3.127940e+03	3.272407e+02	4.153960e+02	5.520968e-01	6.477555e-02	1.938031e-05	0.000000e+00	0.000000e+00	0.000000e+00	0.000000e+00	
-1.152352e-06	-3.800506e-02	2.736620e-02	2.593603e-03	7.014781e+00	1.037197e+00	9.537180e+04	9.502837e+00	9.134306e-01	8.656943e-02	3.152130e+03	3.262417e+02	4.257889e+02	6.107896e-01	6.544907e-02	1.929908e-05	0.000000e+00	0.000000e+00	0.000000e+00	0.000000e+00	
-1.186025e-06	-3.800618e-02	2.890785e-02	2.091867e-03	7.713577e+00	1.139007e+00	7.887237e+04	1.179934e+01	9.325198e-01	6.748021e-02	3.199074e+03	3.257156e+02	4.345963e+02	6.567573e-01	6.675614e-02	1.924410e-05	0.000000e+00	0.000000e+00	0.000000e+00	0.000000e+00	
-1.221480e-06	-3.800736e-02	3.025255e-02	1.676381e-03	8.331239e+00	1.221019e+00	6.525234e+04	1.418575e+01	9.474965e-01	5.250351e-02	3.250306e+03	3.258728e+02	4.424502e+02	6.944524e-01	6.818260e-02	1.922144e-05	0.000000e+00	0.000000e+00	0.000000e+00	0.000000e+00	
-1.259058e-06	-3.800862e-02	3.141359e-02	1.331840e-03	8.892432e+00	1.290291e+00	5.400418e+04	1.666780e+01	9.593275e-01	4.067254e-02	3.305280e+03	3.267949e+02	4.496891e+02	7.266212e-01	6.971327e-02	1.923261e-05	0.000000e+00	0.000000e+00	0.000000e+00	0.000000e+00	
-1.299118e-06	-3.800995e-02	3.238465e-02	1.046416e-03	9.406285e+00	1.349032e+00	4.472930e+04	1.923663e+01	9.686993e-01	3.130071e-02	3.361613e+03	3.285065e+02	4.565117e+02	7.548972e-01	7.128174e-02	1.927727e-05	0.000000e+00	0.000000e+00	0.000000e+00	0.000000e+00	
-1.342044e-06	-3.801138e-02	3.318110e-02	8.119751e-04	9.882749e+00	1.398652e+00	3.715827e+04	2.189095e+01	9.761135e-01	2.388649e-02	3.419271e+03	3.309963e+02	4.630429e+02	7.803355e-01	7.288713e-02	1.935400e-05	0.000000e+00	0.000000e+00	0.000000e+00	0.000000e+00	
-1.388247e-06	-3.801292e-02	3.381715e-02	6.216544e-04	1.032831e+01	1.439651e+00	3.106286e+04	2.462836e+01	9.819490e-01	1.805099e-02	3.478057e+03	3.342342e+02	4.693658e+02	8.036384e-01	7.452393e-02	1.946083e-05	0.000000e+00	0.000000e+00	0.000000e+00	0.000000e+00	