TITLE = "Visualization of the solution"
VARIABLES = "x","y","Density_0","Density_1","Momentum_x","Momentum_y","Energy","Energy_ve","MassFrac_0","MassFrac_1","Pressure","Temperature_tr","Temperature_ve","Mach","Pressure_Coefficient","Laminar_Viscosity","Skin_Friction_Coefficient_x","Skin_Friction_Coefficient_y","Heat_Flux","Y_Plus"
ZONE NODES= 10000, ELEMENTS= 9801, DATAPACKING=POINT, ZONETYPE=FEQUADRILATERAL
0.000000e+00	1.200000e-01	2.162367e-02	2.162414e-05	3.949660e+01	2.833134e-02	3.877550e+04	1.000827e-06	9.990010e-01	9.990224e-04	8.061655e+02	1.253599e+02	1.280762e+02	7.990103e+00	1.299011e-04	1.074807e-05	0.000000e+00	0.000000e+00	0.000000e+00	0.000000e+00	
-3.807352e-03	1.199396e-01	2.158657e-02	2.158856e-05	3.943023e+01	1.351136e-02	3.870972e+04	9.089395e-07	9.990009e-01	9.990931e-04	8.040419e+02	1.252446e+02	1.280762e+02	7.994063e+00	7.077580e-05	1.074236e-05	0.000000e+00	0.000000e+00	0.000000e+00	0.000000e+00	
-7.610870e-03	1.197584e-01	2.155178e-02	2.155620e-05	3.936819e+01	1.515055e-03	3.864815e+04	3.557136e-08	9.990008e-01	9.992055e-04	8.019490e+02	1.251202e+02	1.280762e+02	7.998338e+00	1.250183e-05	1.073620e-05	0.000000e+00	0.000000e+00	0.000000e+00	0.000000e+00	
-1.140673e-02	1.194566e-01	2.154920e-02	2.155557e-05	3.936364e+01	4.840911e-04	3.864363e+04	3.531169e-08	9.990007e-01	9.992958e-04	8.017496e+02	1.251041e+02	1.280762e+02	7.998887e+00	6.950493e-06	1.073541e-05	0.000000e+00	0.000000e+00	0.000000e+00	0.000000e+00	
-1.519109e-02	1.190346e-01	2.154898e-02	2.155694e-05	3.936325e+01	3.807072e-04	3.864325e+04	3.531099e-08	9.990006e-01	9.993697e-04	8.017155e+02	1.251000e+02	1.280762e+02	7.999019e+00	6.001262e-06	1.073521e-05	0.000000e+00	0.000000e+00	0.000000e+00	0.000000e+00	
-1.896017e-02	1.184927e-01	2.154884e-02	2.155812e-05	3.936301e+01	3.132240e-04	3.864302e+04	3.531056e-08	9.990006e-01	9.994309e-04	8.016906e+02	1.250969e+02	1.280762e+02	7.999120e+00	5.307600e-06	1.073505e-05	0.000000e+00	0.000000e+00	0.000000e+00	0.000000e+00	
-2.271015e-02	1.178314e-01	2.154873e-02	2.155913e-05	3.936283e+01	2.608691e-04	3.864286e+04	3.531024e-08	9.990005e-01	9.994823e-04	8.016704e+02	1.250944e+02	1.280762e+02	7.999204e+00	4.745526e-06	1.073493e-05	0.000000e+00	0.000000e+00	0.000000e+00	0.000000e+00	
-2.643726e-02	1.170516e-01	2.154866e-02	2.155999e-05	3.936270e+01	2.196572e-04	3.864273e+04	3.531000e-08	9.990005e-01	9.995258e-04	8.016538e+02	1.250922e+02	1.280762e+02	7.999275e+00	4.283586e-06	1.073482e-05	0.000000e+00	0.000000e+00	0.000000e+00	0.000000e+00	
-3.013776e-02	1.161538e-01	2.154860e-02	2.156073e-05	3.936260e+01	1.867838e-04	3.864264e+04	3.530981e-08	9.990004e-01	9.995629e-04	8.016400e+02	1.250904e+02	1.280762e+02	7.999334e+00	3.899112e-06	1.073473e-05	0.000000e+00	0.000000e+00	0.000000e+00	0.000000e+00	
-3.380791e-02	1.151392e-01	2.154855e-02	2.156137e-05	3.936253e+01	1.602419e-04	3.864257e+04	3.530967e-08	9.990004e-01	9.995949e-04	8.016284e+02	1.250888e+02	1.280762e+02	7.999385e+00	3.575475e-06	1.073465e-05	0.000000e+00	0.000000e+00	0.000000e+00	0.000000e+00	
-3.744401e-02	1.140085e-01	2.154851e-02	2.156194e-05	3.936247e+01	1.385720e-04	3.864251e+04	3.530956e-08	9.990004e-01	9.996227e-04	8.016185e+02	1.250875e+02	1.280762e+02	7.999429e+00	3.300276e-06	1.073459e-05	0.000000e+00	0.000000e+00	0.000000e+00	0.000000e+00	
-4.104242e-02	1.127631e-01	2.154849e-02	2.156243e-05	3.936242e+01	1.206978e-04	3.864247e+04	3.530947e-08	9.990004e-01	9.996469e-04	8.016100e+02	1.250863e+02	1.280762e+02	7.999467e+00	3.064132e-06	1.073453e-05	0.000000e+00	0.000000e+00	0.000000e+00	0.000000e+00	
-4.459949e-02	1.114042e-01	2.154846e-02	2.156287e-05	3.936238e+01	1.058145e-04	3.864243e+04	3.530940e-08	9.990003e-01	9.996682e-04	8.016027e+02	1.250853e+02	1.280762e+02	7.999500e+00	2.859841e-06	1.073448e-05	0.000000e+00	0.000000e+00	0.000000e+00	0.000000e+00	
-4.811166e-02	1.099330e-01	2.154844e-02	2.156326e-05	3.936235e+01	9.331323e-05	3.864241e+04	3.530934e-08	9.990003e-01	9.996870e-04	8.015963e+02	1.250844e+02	1.280762e+02	7.999529e+00	2.681808e-06	1.073443e-05	0.000000e+00	0.000000e+00	0.000000e+00	0.000000e+00	
-5.157539e-02	1.083512e-01	2.154843e-02	2.156360e-05	3.936233e+01	8.272737e-05	3.864239e+04	3.530929e-08	9.990003e-01	9.997037e-04	8.015907e+02	1.250836e+02	1.280762e+02	7.999555e+00	2.525632e-06	1.073439e-05	0.000000e+00	0.000000e+00	0.000000e+00	0.000000e+00	
-5.498718e-02	1.066603e-01	2.154842e-02	2.156391e-05	3.936231e+01	7.369590e-05	3.864237e+04	3.530926e-08	9.990003e-01	9.997186e-04	8.015858e+02	1.250829e+02	1.280762e+02	7.999578e+00	2.387815e-06	1.073436e-05	0.000000e+00	0.000000e+00	0.000000e+00	0.000000e+00	
-5.834361e-02	1.048619e-01	2.154841e-02	2.156419e-05	3.936229e+01	6.593644e-05	3.864235e+04	3.530922e-08	9.990003e-01	9.997320e-04	8.015814e+02	1.250823e+02	1.280762e+02	7.999599e+00	2.265548e-06	1.073433e-05	0.000000e+00	0.000000e+00	0.000000e+00	0.000000e+00	
-6.164129e-02	1.029580e-01	2.154840e-02	2.156444e-05	3.936228e+01	5.922610e-05	3.864234e+04	3.530920e-08	9.990003e-01	9.997440e-04	8.015775e+02	1.250817e+02	1.280762e+02	7.999617e+00	2.156555e-06	1.073430e-05	0.000000e+00	0.000000e+00	0.000000e+00	0.000000e+00	
-6.487690e-02	1.009504e-01	2.154839e-02	2.156467e-05	3.936227e+01	5.338732e-05	3.864233e+04	3.530917e-08	9.990002e-01	9.997548e-04	8.015739e+02	1.250812e+02	1.280762e+02	7.999634e+00	2.058972e-06	1.073428e-05	0.000000e+00	0.000000e+00	0.000000e+00	0.000000e+00	
-6.804718e-02	9.884119e-02	2.154838e-02	2.156487e-05	3.936226e+01	4.827752e-05	3.864233e+04	3.530915e-08	9.990002e-01	9.997646e-04	8.015708e+02	1.250808e+02	1.280762e+02	7.999648e+00	1.971267e-06	1.073425e-05	0.000000e+00	0.000000e+00	0.000000e+00	0.000000e+00	
-7.114895e-02	9.663243e-02	2.154838e-02	2.156506e-05	3.936225e+01	4.378129e-05	3.864232e+04	3.530914e-08	9.990002e-01	9.997735e-04	8.015680e+02	1.250804e+02	1.280762e+02	7.999662e+00	1.892166e-06	1.073423e-05	0.000000e+00	0.000000e+00	0.000000e+00	0.000000e+00	
-7.417908e-02	9.432637e-02	2.154837e-02	2.156523e-05	3.936225e+01	3.980449e-05	3.864231e+04	3.530912e-08	9.990002e-01	9.997816e-04	8.015654e+02	1.250800e+02	1.280762e+02	7.999674e+00	1.820603e-06	1.073421e-05	0.000000e+00	0.000000e+00	0.000000e+00	0.000000e+00	
-7.713451e-02	9.192533e-02	2.154837e-02	2.156538e-05	3.936224e+01	3.626986e-05	3.864231e+04	3.530911e-08	9.990002e-01	9.997890e-04	8.015631e+02	1.250796e+02	1.280762e+02	7.999686e+00	1.755682e-06	1.073420e-05	0.000000e+00	0.000000e+00	0.000000e+00	0.000000e+00	
-8.001228e-02	8.943173e-02	2.154837e-02	2.156553e-05	3.936224e+01	3.311351e-05	3.864231e+04	3.530910e-08	9.990002e-01	9.997957e-04	8.015609e+02	1.250793e+02	1.280762e+02	7.999696e+00	1.696645e-06	1.073418e-05	0.000000e+00	0.000000e+00	0.000000e+00	0.000000e+00	
-8.280948e-02	8.684808e-02	2.154836e-02	2.156566e-05	3.936223e+01	3.028230e-05	3.864230e+04	3.530909e-08	9.990002e-01	9.998019e-04	8.015590e+02	1.250790e+02	1.280762e+02	7.999705e+00	1.642846e-06	1.073417e-05	0.000000e+00	0.000000e+00	0.000000e+00	0.000000e+00	
-8.552330e-02	8.417699e-02	2.154836e-02	2.156578e-05	3.936223e+01	2.773178e-05	3.864230e+04	3.530908e-08	9.990002e-01	9.998075e-04	8.015572e+02	1.250788e+02	1.280762e+02	7.999714e+00	1.593733e-06	1.073415e-05	0.000000e+00	0.000000e+00	0.000000e+00	0.000000e+00	
-8.815101e-02	8.142113e-02	2.154836e-02	2.156589e-05	3.936222e+01	2.542452e-05	3.864230e+04	3.530908e-08	9.990002e-01	9.998127e-04	8.015556e+02	1.250785e+02	1.280762e+02	7.999721e+00	1.548831e-06	1.073414e-05	0.000000e+00	0.000000e+00	0.000000e+00	0.000000e+00	
-9.068995e-02	7.858329e-02	2.154836e-02	2.156599e-05	3.936222e+01	2.332888e-05	3.864229e+04	3.530907e-08	9.990002e-01	9.998175e-04	8.015542e+02	1.250783e+02	1.280762e+02	7.999729e+00	1.507730e-06	1.073413e-05	0.000000e+00	0.000000e+00	0.000000e+00	0.000000e+00	
-9.313758e-02	7.566632e-02	2.154836e-02	2.156608e-05	3.936222e+01	2.141791e-05	3.864229e+04	3.530907e-08	9.990002e-01	9.998219e-04	8.015528e+02	1.250781e+02	1.280762e+02	7.999735e+00	1.470074e-06	1.073412e-05	0.000000e+00	0.000000e+00	0.000000e+00	0.000000e+00	
-9.549142e-02	7.267316e-02	2.154835e-02	2.156616e-05	3.936222e+01	1.966861e-05	3.864229e+04	3.530906e-08	9.990002e-01	9.998259e-04	8.015516e+02	1.250779e+02	1.280762e+02	7.999741e+00	1.435556e-06	1.073411e-05	0.000000e+00	0.000000e+00	0.000000e+00	0.000000e+00	
-9.774911e-02	6.960683e-02	2.154835e-02	2.156624e-05	3.936222e+01	1.806119e-05	3.864229e+04	3.530906e-08	9.990002e-01	9.998296e-04	8.015504e+02	1.250778e+02	1.280762e+02	7.999747e+00	1.403906e-06	1.073410e-05	0.000000e+00	0.000000e+00	0.000000e+00	0.000000e+00	
-9.990838e-02	6.647041e-02	2.154835e-02	2.156631e-05	3.936221e+01	1.657859e-05	3.864229e+04	3.530905e-08	9.990002e-01	9.998330e-04	8.015494e+02	1.250776e+02	1.280762e+02	7.999752e+00	1.374887e-06	1.073410e-05	0.000000e+00	0.000000e+00	0.000000e+00	0.000000e+00	
-1.019671e-01	6.326706e-02	2.154835e-02	2.156638e-05	3.936221e+01	1.520598e-05	3.864229e+04	3.530905e-08	9.990002e-01	9.998361e-04	8.015484e+02	1.250775e+02	1.280762e+02	7.999757e+00	1.348294e-06	1.073409e-05	0.000000e+00	0.000000e+00	0.000000e+00	0.000000e+00	
-1.039230e-01	6.000000e-02	2.154835e-02	2.156644e-05	3.936221e+01	1.393046e-05	3.864229e+04	3.530905e-08	9.990002e-01	9.998389e-04	8.015475e+02	1.250773e+02	1.280762e+02	7.999761e+00	1.323943e-06	1.073408e-05	0.000000e+00	0.000000e+00	0.000000e+00	0.000000e+00	
-1.057744e-01	5.667253e-02	2.154835e-02	2.156650e-05	3.936221e+01	1.274074e-05	3.864229e+04	3.530904e-08	9.990002e-01	9.998415e-04	8.015468e+02	1.250772e+02	1.280762e+02	7.999765e+00	1.301676e-06	1.073408e-05	0.000000e+00	0.000000e+00	0.000000e+00	0.000000e+00	
-1.075193e-01	5.328799e-02	2.154835e-02	2.156655e-05	3.936221e+01	1.162686e-05	3.864229e+04	3.530904e-08	9.990002e-01	9.998439e-04	8.015460e+02	1.250771e+02	1.280762e+02	7.999768e+00	1.281351e-06	1.073407e-05	0.000000e+00	0.000000e+00	0.000000e+00	0.000000e+00	
-1.091558e-01	4.984980e-02	2.154835e-02	2.156659e-05	3.936221e+01	1.058004e-05	3.864229e+04	3.530904e-08	9.990002e-01	9.998461e-04	8.015454e+02	1.250770e+02	1.280762e+02	7.999772e+00	1.262843e-06	1.073407e-05	0.000000e+00	0.000000e+00	0.000000e+00	0.000000e+00	
-1.106825e-01	4.636142e-02	2.154835e-02	2.156664e-05	3.936221e+01	9.592455e-06	3.864229e+04	3.530904e-08	9.990002e-01	9.998481e-04	8.015448e+02	1.250769e+02	1.280762e+02	7.999775e+00	1.246044e-06	1.073406e-05	0.000000e+00	0.000000e+00	0.000000e+00	0.000000e+00	
-1.120977e-01	4.282635e-02	2.154835e-02	2.156667e-05	3.936221e+01	8.657132e-06	3.864229e+04	3.530904e-08	9.990002e-01	9.998499e-04	8.015442e+02	1.250768e+02	1.280762e+02	7.999777e+00	1.230857e-06	1.073406e-05	0.000000e+00	0.000000e+00	0.000000e+00	0.000000e+00	
-1.134001e-01	3.924816e-02	2.154834e-02	2.156671e-05	3.936221e+01	7.767802e-06	3.864228e+04	3.530903e-08	9.990001e-01	9.998515e-04	8.015437e+02	1.250768e+02	1.280762e+02	7.999780e+00	1.217197e-06	1.073405e-05	0.000000e+00	0.000000e+00	0.000000e+00	0.000000e+00	
-1.145883e-01	3.563045e-02	2.154834e-02	2.156674e-05	3.936221e+01	6.918800e-06	3.864228e+04	3.530903e-08	9.990001e-01	9.998530e-04	8.015433e+02	1.250767e+02	1.280762e+02	7.999782e+00	1.204989e-06	1.073405e-05	0.000000e+00	0.000000e+00	0.000000e+00	0.000000e+00	
-1.156611e-01	3.197686e-02	2.154834e-02	2.156677e-05	3.936221e+01	6.104976e-06	3.864228e+04	3.530903e-08	9.990001e-01	9.998542e-04	8.015429e+02	1.250766e+02	1.280762e+02	7.999784e+00	1.194169e-06	1.073405e-05	0.000000e+00	0.000000e+00	0.000000e+00	0.000000e+00	
-1.166174e-01	2.829107e-02	2.154834e-02	2.156679e-05	3.936221e+01	5.321620e-06	3.864228e+04	3.530903e-08	9.990001e-01	9.998554e-04	8.015425e+02	1.250766e+02	1.280762e+02	7.999785e+00	1.184679e-06	1.073404e-05	0.000000e+00	0.000000e+00	0.000000e+00	0.000000e+00	
-1.174563e-01	2.457680e-02	2.154834e-02	2.156681e-05	3.936221e+01	4.564388e-06	3.864228e+04	3.530903e-08	9.990001e-01	9.998563e-04	8.015423e+02	1.250765e+02	1.280762e+02	7.999787e+00	1.176472e-06	1.073404e-05	0.000000e+00	0.000000e+00	0.000000e+00	0.000000e+00	
-1.181769e-01	2.083778e-02	2.154834e-02	2.156683e-05	3.936221e+01	3.829250e-06	3.864228e+04	3.530903e-08	9.990001e-01	9.998572e-04	8.015420e+02	1.250765e+02	1.280762e+02	7.999788e+00	1.169506e-06	1.073404e-05	0.000000e+00	0.000000e+00	0.000000e+00	0.000000e+00	
-1.187786e-01	1.707778e-02	2.154834e-02	2.156684e-05	3.936221e+01	3.112427e-06	3.864228e+04	3.530903e-08	9.990001e-01	9.998579e-04	8.015418e+02	1.250765e+02	1.280762e+02	7.999789e+00	1.163747e-06	1.073404e-05	0.000000e+00	0.000000e+00	0.000000e+00	0.000000e+00	
-1.192606e-01	1.330058e-02	2.154834e-02	2.156686e-05	3.936221e+01	2.401732e-06	3.864228e+04	3.530903e-08	9.990001e-01	9.998584e-04	8.015416e+02	1.250764e+02	1.280762e+02	7.999790e+00	1.159222e-06	1.073404e-05	0.000000e+00	0.000000e+00	0.000000e+00	0.000000e+00	
-1.196226e-01	9.509995e-03	2.154834e-02	2.156686e-05	3.936221e+01	1.707634e-06	3.864228e+04	3.530903e-08	9.990001e-01	9.998588e-04	8.015415e+02	1.250764e+02	1.280762e+02	7.999791e+00	1.155820e-06	1.073404e-05	0.000000e+00	0.000000e+00	0.000000e+00	0.000000e+00	
-1.198641e-01	5.709830e-03	2.154834e-02	2.156687e-05	3.936221e+01	1.024062e-06	3.864228e+04	3.530903e-08	9.990001e-01	9.998591e-04	8.015414e+02	1.250764e+02	1.280762e+02	7.999791e+00	1.153530e-06	1.073404e-05	0.000000e+00	0.000000e+00	0.000000e+00	0.000000e+00	
-1.199849e-01	1.903916e-03	2.154834e-02	2.156687e-05	3.936221e+01	3.464785e-07	3.864228e+04	3.530903e-08	9.990001e-01	9.998592e-04	8.015414e+02	1.250764e+02	1.280762e+02	7.999791e+00	1.152344e-06	1.073404e-05	0.000000e+00	0.000000e+00	0.000000e+00	0.000000e+00	
-1.199849e-01	-1.903916e-03	2.154834e-02	2.156687e-05	3.936221e+01	-3.464785e-07	3.864228e+04	3.530903e-08	9.990001e-01	9.998592e-04	8.015414e+02	1.250764e+02	1.280762e+02	7.999791e+00	1.152344e-06	1.073404e-05	0.000000e+00	0.000000e+00	0.000000e+00	0.000000e+00	
-1.198641e-01	-5.709830e-03	2.154834e-02	2.156687e-05	3.936221e+01	-1.024062e-06	3.864228e+04	3.530903e-08	9.990001e-01	9.998591e-04	8.015414e+02	1.250764e+02	1.280762e+02	7.999791e+00	1.153530e-06	1.073404e-05	0.000000e+00	0.000000e+00	0.000000e+00	0.000000e+00	
-1.196226e-01	-9.509995e-03	2.154834e-02	2.156686e-05	3.936221e+01	-1.707634e-06	3.864228e+04	3.530903e-08	9.990001e-01	9.998588e-04	8.015415e+02	1.250764e+02	1.280762e+02	7.999791e+00	1.155820e-06	1.073404e-05	0.000000e+00	0.000000e+00	0.000000e+00	0.000000e+00	
-1.192606e-01	-1.330058e-02	2.154834e-02	2.156686e-05	3.936221e+01	-2.401732e-06	3.864228e+04	3.530903e-08	9.990001e-01	9.998584e-04	8.015416e+02	1.250764e+02	1.280762e+02	7.999790e+00	1.159222e-06	1.073404e-05	0.000000e+00	0.000000e+00	0.000000e+00	0.000000e+00	
-1.187786e-01	-1.707778e-02	2.154834e-02	2.156684e-05	3.936221e+01	-3.112427e-06	3.864228e+04	3.530903e-08	9.990001e-01	9.998579e-04	8.015418e+02	1.250765e+02	1.280762e+02	7.999789e+00	1.163747e-06	1.073404e-05	0.000000e+00	0.000000e+00	0.000000e+00	0.000000e+00	
-1.181769e-01	-2.083778e-02	2.154834e-02	2.156683e-05	3.936221e+01	-3.829250e-06	3.864228e+04	3.530903e-08	9.990001e-01	9.998572e-04	8.015420e+02	1.250765e+02	1.280762e+02	7.999788e+00	1.169506e-06	1.073404e-05	0.000000e+00	0.000000e+00	0.000000e+00	0.000000e+00	
-1.174563e-01	-2.457680e-02	2.154834e-02	2.156681e-05	3.936221e+01	-4.564388e-06	3.864228e+04	3.530903e-08	9.990001e-01	9.998563e-04	8.015423e+02	1.250765e+02	1.280762e+02	7.999787e+00	1.176472e-06	1.073404e-05	0.000000e+00	0.000000e+00	0.000000e+00	0.000000e+00	
-1.166174e-01	-2.829107e-02	2.154834e-02	2.156679e-05	3.936221e+01	-5.321620e-06	3.864228e+04	3.530903e-08	9.990001e-01	9.998554e-04	8.015425e+02	1.250766e+02	1.280762e+02	7.999785e+00	1.184679e-06	1.073404e-05	0.000000e+00	0.000000e+00	0.000000e+00	0.000000e+00	
-1.156611e-01	-3.197686e-02	2.154834e-02	2.156677e-05	3.936221e+01	-6.104976e-06	3.864228e+04	3.530903e-08	9.990001e-01	9.998542e-04	8.015429e+02	1.250766e+02	1.280762e+02	7.999784e+00	1.194169e-06	1.073405e-05	0.000000e+00	0.000000e+00	0.000000e+00	0.000000e+00	
-1.145883e-01	-3.563045e-02	2.154834e-02	2.156674e-05	3.936221e+01	-6.918800e-06	3.864228e+04	3.530903e-08	9.990001e-01	9.998530e-04	8.015433e+02	1.250767e+02	1.280762e+02	7.999782e+00	1.204989e-06	1.073405e-05	0.000000e+00	0.000000e+00	0.000000e+00	0.000000e+00	
-1.134001e-01	-3.924816e-02	2.154834e-02	2.156671e-05	3.936221e+01	-7.767802e-06	3.864228e+04	3.530903e-08	9.990001e-01	9.998515e-04	8.015437e+02	1.250768e+02	1.280762e+02	7.999780e+00	1.217197e-06	1.073405e-05	0.000000e+00	0.000000e+00	0.000000e+00	0.000000e+00	
-1.120977e-01	-4.282635e-02	2.154835e-02	2.156667e-05	3.936221e+01	-8.657132e-06	3.864229e+04	3.530904e-08	9.990002e-01	9.998499e-04	8.015442e+02	1.250768e+02	1.280762e+02	7.999777e+00	1.230857e-06	1.073406e-05	0.000000e+00	0.000000e+00	0.000000e+00	0.000000e+00	
-1.106825e-01	-4.636142e-02	2.154835e-02	2.156664e-05	3.936221e+01	-9.592455e-06	3.864229e+04	3.530904e-08	9.990002e-01	9.998481e-04	8.015448e+02	1.250769e+02	1.280762e+02	7.999775e+00	1.246044e-06	1.073406e-05	0.000000e+00	0.000000e+00	0.000000e+00	0.000000e+00	
-1.091558e-01	-4.984980e-02	2.154835e-02	2.156659e-05	3.936221e+01	-1.058004e-05	3.864229e+04	3.530904e-08	9.990002e-01	9.998461e-04	8.015454e+02	1.250770e+02	1.280762e+02	7.999772e+00	1.262843e-06	1.073407e-05	0.000000e+00	0.000000e+00	0.000000e+00	0.000000e+00	
-1.075193e-01	-5.328799e-02	2.154835e-02	2.156655e-05	3.936221e+01	-1.162686e-05	3.864229e+04	3.530904e-08	9.990002e-01	9.998439e-04	8.015460e+02	1.250771e+02	1.280762e+02	7.999768e+00	1.281351e-06	1.073407e-05	0.000000e+00	0.000000e+00	0.000000e+00	0.000000e+00	
-1.057744e-01	-5.667253e-02	2.154835e-02	2.156650e-05	3.936221e+01	-1.274074e-05	3.864229e+04	3.530904e-08	9.990002e-01	9.998415e-04	8.015468e+02	1.250772e+02	1.280762e+02	7.999765e+00	1.301676e-06	1.073408e-05	0.000000e+00	0.000000e+00	0.000000e+00	0.000000e+00	
-1.039230e-01	-6.000000e-02	2.154835e-02	2.156644e-05	3.936221e+01	-1.393046e-05	3.864229e+04	3.530905e-08	9.990002e-01	9.998389e-04	8.015475e+02	1.250773e+02	1.280762e+02	7.999761e+00	1.323943e-06	1.073408e-05	0.000000e+00	0.000000e+00	0.000000e+00	0.000000e+00	
-1.019671e-01	-6.326706e-02	2.154835e-02	2.156638e-05	3.936221e+01	-1.520598e-05	3.864229e+04	3.530905e-08	9.990002e-01	9.998361e-04	8.015484e+02	1.250775e+02	1.280762e+02	7.999757e+00	1.348294e-06	1.073409e-05	0.000000e+00	0.000000e+00	0.000000e+00	0.000000e+00	
-9.990838e-02	-6.647041e-02	2.154835e-02	2.156631e-05	3.936221e+01	-1.657859e-05	3.864229e+04	3.530905e-08	9.990002e-01	9.998330e-04	8.015494e+02	1.250776e+02	1.280762e+02	7.999752e+00	1.374887e-06	1.073410e-05	0.000000e+00	0.000000e+00	0.000000e+00	0.000000e+00	
-9.774911e-02	-6.960683e-02	2.154835e-02	2.156624e-05	3.936222e+01	-1.806119e-05	3.864229e+04	3.530906e-08	9.990002e-01	9.998296e-04	8.015504e+02	1.250778e+02	1.280762e+02	7.999747e+00	1.403906e-06	1.073410e-05	0.000000e+00	0.000000e+00	0.000000e+00	0.000000e+00	
-9.549142e-02	-7.267316e-02	2.154835e-02	2.156616e-05	3.936222e+01	-1.966861e-05	3.864229e+04	3.530906e-08	9.990002e-01	9.998259e-04	8.015516e+02	1.250779e+02	1.280762e+02	7.999741e+00	1.435556e-06	1.073411e-05	0.000000e+00	0.000000e+00	0.000000e+00	0.000000e+00	
-9.313758e-02	-7.566632e-02	2.154836e-02	2.156608e-05	3.936222e+01	-2.141791e-05	3.864229e+04	3.530907e-08	9.990002e-01	9.998219e-04	8.015528e+02	1.250781e+02	1.280762e+02	7.999735e+00	1.470074e-06	1.073412e-05	0.000000e+00	0.000000e+00	0.000000e+00	0.000000e+00	
-9.068995e-02	-7.858329e-02	2.154836e-02	2.156599e-05	3.936222e+01	-2.332888e-05	3.864229e+04	3.530907e-08	9.990002e-01	9.998175e-04	8.015542e+02	1.250783e+02	1.280762e+02	7.999729e+00	1.507730e-06	1.073413e-05	0.000000e+00	0.000000e+00	0.000000e+00	0.000000e+00	
-8.815101e-02	-8.142113e-02	2.154836e-02	2.156589e-05	3.936222e+01	-2.542452e-05	3.864230e+04	3.530908e-08	9.990002e-01	9.998127e-04	8.015556e+02	1.250785e+02	1.280762e+02	7.999721e+00	1.548831e-06	1.073414e-05	0.000000e+00	0.000000e+00	0.000000e+00	0.000000e+00	
-8.552330e-02	-8.417699e-02	2.154836e-02	2.156578e-05	3.936223e+01	-2.773178e-05	3.864230e+04	3.530908e-08	9.990002e-01	9.998075e-04	8.015572e+02	1.250788e+02	1.280762e+02	7.999714e+00	1.593733e-06	1.073415e-05	0.000000e+00	0.000000e+00	0.000000e+00	0.000000e+00	
-8.280948e-02	-8.684808e-02	2.154836e-02	2.156566e-05	3.936223e+01	-3.028230e-05	3.864230e+04	3.530909e-08	9.990002e-01	9.998019e-04	8.015590e+02	1.250790e+02	1.280762e+02	7.999705e+00	1.642846e-06	1.073417e-05	0.000000e+00	0.000000e+00	0.000000e+00	0.000000e+00	
-8.001228e-02	-8.943173e-02	2.154837e-02	2.156553e-05	3.936224e+01	-3.311351e-05	3.864231e+04	3.530910e-08	9.990002e-01	9.997957e-04	8.015609e+02	1.250793e+02	1.280762e+02	7.999696e+00	1.696645e-06	1.073418e-05	0.000000e+00	0.000000e+00	0.000000e+00	0.000000e+00	
-7.713451e-02	-9.192533e-02	2.154837e-02	2.156538e-05	3.936224e+01	-3.626986e-05	3.864231e+04	3.530911e-08	9.990002e-01	9.997890e-04	8.015631e+02	1.250796e+02	1.280762e+02	7.999686e+00	1.755682e-06	1.073420e-05	0.000000e+00	0.000000e+00	0.000000e+00	0.000000e+00	
-7.417908e-02	-9.432637e-02	2.154837e-02	2.156523e-05	3.936225e+01	-3.980449e-05	3.864231e+04	3.530912e-08	9.990002e-01	9.997816e-04	8.015654e+02	1.250800e+02	1.280762e+02	7.999674e+00	1.820603e-06	1.073421e-05	0.000000e+00	0.000000e+00	0.000000e+00	0.000000e+00	
-7.114895e-02	-9.663243e-02	2.154838e-02	2.156506e-05	3.936225e+01	-4.378129e-05	3.864232e+04	3.530914e-08	9.990002e-01	9.997735e-04	8.015680e+02	1.250804e+02	1.280762e+02	7.999662e+00	1.892166e-06	1.073423e-05	0.000000e+00	0.000000e+00	0.000000e+00	0.000000e+00	
-6.804718e-02	-9.884119e-02	2.154838e-02	2.156487e-05	3.936226e+01	-4.827752e-05	3.864233e+04	3.530915e-08	9.990002e-01	9.997646e-04	8.015708e+02	1.250808e+02	1.280762e+02	7.999648e+00	1.971267e-06	1.073425e-05	0.000000e+00	0.000000e+00	0.000000e+00	0.000000e+00	
-6.487690e-02	-1.009504e-01	2.154839e-02	2.156467e-05	3.936227e+01	-5.338732e-05	3.864233e+04	3.530917e-08	9.990002e-01	9.997548e-04	8.015739e+02	1.250812e+02	1.280762e+02	7.999634e+00	2.058972e-06	1.073428e-05	0.000000e+00	0.000000e+00	0.000000e+00	0.000000e+00	
-6.164129e-02	-1.029580e-01	2.154840e-02	2.156444e-05	3.936228e+01	-5.922610e-05	3.864234e+04	3.530920e-08	9.990003e-01	9.997440e-04	8.015775e+02	1.250817e+02	1.280762e+02	7.999617e+00	2.156555e-06	1.073430e-05	0.000000e+00	0.000000e+00	0.000000e+00	0.000000e+00	
-5.834361e-02	-1.048619e-01	2.154841e-02	2.156419e-05	3.936229e+01	-6.593644e-05	3.864235e+04	3.530922e-08	9.990003e-01	9.997320e-04	8.015814e+02	1.250823e+02	1.280762e+02	7.999599e+00	2.265548e-06	1.073433e-05	0.000000e+00	0.000000e+00	0.000000e+00	0.000000e+00	
-5.498718e-02	-1.066603e-01	2.154842e-02	2.156391e-05	3.936231e+01	-7.369590e-05	3.864237e+04	3.530926e-08	9.990003e-01	9.997186e-04	8.015858e+02	1.250829e+02	1.280762e+02	7.999578e+00	2.387815e-06	1.073436e-05	0.000000e+00	0.000000e+00	0.000000e+00	0.000000e+00	
-5.157539e-02	-1.083512e-01	2.154843e-02	2.156360e-05	3.936233e+01	-8.272737e-05	3.864239e+04	3.530929e-08	9.990003e-01	9.997037e-04	8.015907e+02	1.250836e+02	1.280762e+02	7.999555e+00	2.525632e-06	1.073439e-05	0.000000e+00	0.000000e+00	0.000000e+00	0.000000e+00	
-4.811166e-02	-1.099330e-01	2.154844e-02	2.156326e-05	3.936235e+01	-9.331323e-05	3.864241e+04	3.530934e-08	9.990003e-01	9.996870e-04	8.015963e+02	1.250844e+02	1.280762e+02	7.999529e+00	2.681808e-06	1.073443e-05	0.000000e+00	0.000000e+00	0.000000e+00	0.000000e+00	
-4.459949e-02	-1.114042e-01	2.154846e-02	2.156287e-05	3.936238e+01	-1.058145e-04	3.864243e+04	3.530940e-08	9.990003e-01	9.996682e-04	8.016027e+02	1.250853e+02	1.280762e+02	7.999500e+00	2.859841e-06	1.073448e-05	0.000000e+00	0.000000e+00	0.000000e+00	0.000000e+00	
-4.104242e-02	-1.127631e-01	2.154849e-02	2.156243e-05	3.936242e+01	-1.206978e-04	3.864247e+04	3.530947e-08	9.990004e-01	9.996469e-04	8.016100e+02	1.250863e+02	1.280762e+02	7.999467e+00	3.064132e-06	1.073453e-05	0.000000e+00	0.000000e+00	0.000000e+00	0.000000e+00	
-3.744401e-02	-1.140085e-01	2.154851e-02	2.156194e-05	3.936247e+01	-1.385720e-04	3.864251e+04	3.530956e-08	9.990004e-01	9.996227e-04	8.016185e+02	1.250875e+02	1.280762e+02	7.999429e+00	3.300276e-06	1.073459e-05	0.000000e+00	0.000000e+00	0.000000e+00	0.000000e+00	
-3.380791e-02	-1.151392e-01	2.154855e-02	2.156137e-05	3.936253e+01	-1.602419e-04	3.864257e+04	3.530967e-08	9.990004e-01	9.995949e-04	8.016284e+02	1.250888e+02	1.280762e+02	7.999385e+00	3.575475e-06	1.073465e-05	0.000000e+00	0.000000e+00	0.000000e+00	0.000000e+00	
-3.013776e-02	-1.161538e-01	2.154860e-02	2.156073e-05	3.936260e+01	-1.867838e-04	3.864264e+04	3.530981e-08	9.990004e-01	9.995629e-04	8.016400e+02	1.250904e+02	1.280762e+02	7.999334e+00	3.899112e-06	1.073473e-05	0.000000e+00	0.000000e+00	0.000000e+00	0.000000e+00	
-2.643726e-02	-1.170516e-01	2.154866e-02	2.155999e-05	3.936270e+01	-2.196572e-04	3.864273e+04	3.531000e-08	9.990005e-01	9.995258e-04	8.016538e+02	1.250922e+02	1.280762e+02	7.999275e+00	4.283586e-06	1.073482e-05	0.000000e+00	0.000000e+00	0.000000e+00	0.000000e+00	
-2.271015e-02	-1.178314e-01	2.154873e-02	2.155913e-05	3.936283e+01	-2.608691e-04	3.864286e+04	3.531024e-08	9.990005e-01	9.994823e-04	8.016704e+02	1.250944e+02	1.280762e+02	7.999204e+00	4.745526e-06	1.073493e-05	0.000000e+00	0.000000e+00	0.000000e+00	0.000000e+00	
-1.896017e-02	-1.184927e-01	2.154884e-02	2.155812e-05	3.936301e+01	-3.132240e-04	3.864302e+04	3.531056e-08	9.990006e-01	9.994309e-04	8.016906e+02	1.250969e+02	1.280762e+02	7.999120e+00	5.307600e-06	1.073505e-05	0.000000e+00	0.000000e+00	0.000000e+00	0.000000e+00	
-1.519109e-02	-1.190346e-01	2.154898e-02	2.155694e-05	3.936325e+01	-3.807072e-04	3.864325e+04	3.531099e-08	9.990006e-01	9.993697e-04	8.017155e+02	1.251000e+02	1.280762e+02	7.999019e+00	6.001262e-06	1.073521e-05	0.000000e+00	0.000000e+00	0.000000e+00	0.000000e+00	
-1.140673e-02	-1.194566e-01	2.154920e-02	2.155557e-05	3.936364e+01	-4.840911e-04	3.864363e+04	3.531169e-08	9.990007e-01	9.992958e-04	8.017496e+02	1.251041e+02	1.280762e+02	7.998887e+00	6.950493e-06	1.073541e-05	0.000000e+00	0.000000e+00	0.000000e+00	0.000000e+00	
-7.610870e-03	-1.197584e-01	2.155178e-02	2.155620e-05	3.936819e+01	-1.515055e-03	3.864815e+04	3.557136e-08	9.990008e-01	9.992055e-04	8.019490e+02	1.251202e+02	1.280762e+02	7.998338e+00	1.250183e-05	1.073620e-05	0.000000e+00	0.000000e+00	0.000000e+00	0.000000e+00	
-3.807352e-03	-1.199396e-01	2.158657e-02	2.158856e-05	3.943023e+01	-1.351136e-02	3.870972e+04	9.089395e-07	9.990009e-01	9.990931e-04	8.040419e+02	1.252446e+02	1.280762e+02	7.994063e+00	7.077580e-05	1.074236e-05	0.000000e+00	0.000000e+00	0.000000e+00	0.000000e+00	
0.000000e+00	-1.200000e-01	2.162367e-02	2.162414e-05	3.949660e+01	-2.833134e-02	3.877550e+04	1.000831e-06	9.990010e-01	9.990224e-04	8.061655e+02	1.253599e+02	1.280762e+02	7.990103e+00	1.299011e-04	1.074807e-05	0.000000e+00	0.000000e+00	0.000000e+00	0.000000e+00	
0.000000e+00	1.123583e-01	2.212931e-02	2.211229e-05	4.037464e+01	3.346565e-01	3.965898e+04	9.720462e-05	9.990018e-01	9.982332e-04	8.481690e+02	1.288781e+02	1.762638e+02	7.871691e+00	1.299416e-03	1.092136e-05	0.000000e+00	0.000000e+00	0.000000e+00	0.000000e+00	
-3.564895e-03	1.123017e-01	2.183795e-02	2.182289e-05	3.987484e+01	1.634264e-01	3.915288e+04	1.126469e-06	9.990017e-01	9.983126e-04	8.209706e+02	1.264097e+02	1.378357e+02	7.954308e+00	5.421251e-04	1.079995e-05	0.000000e+00	0.000000e+00	0.000000e+00	0.000000e+00	
-7.126201e-03	1.121320e-01	2.158722e-02	2.157508e-05	3.943048e+01	1.593589e-02	3.871025e+04	1.035271e-06	9.990016e-01	9.984395e-04	8.046790e+02	1.253402e+02	1.280762e+02	7.990830e+00	8.851346e-05	1.074710e-05	0.000000e+00	0.000000e+00	0.000000e+00	0.000000e+00	
-1.068033e-02	1.118495e-01	2.155069e-02	2.154093e-05	3.936606e+01	1.304867e-03	3.864597e+04	5.134377e-08	9.990015e-01	9.985494e-04	8.020934e+02	1.251493e+02	1.280762e+02	7.997393e+00	1.652132e-05	1.073764e-05	0.000000e+00	0.000000e+00	0.000000e+00	0.000000e+00	
-1.422371e-02	1.114543e-01	2.154885e-02	2.154122e-05	3.936288e+01	4.786662e-04	3.864279e+04	3.535442e-08	9.990014e-01	9.986475e-04	8.019174e+02	1.251324e+02	1.280762e+02	7.997964e+00	1.162290e-05	1.073681e-05	0.000000e+00	0.000000e+00	0.000000e+00	0.000000e+00	
-1.775276e-02	1.109469e-01	2.154881e-02	2.154307e-05	3.936282e+01	4.310221e-04	3.864274e+04	3.531047e-08	9.990013e-01	9.987355e-04	8.018896e+02	1.251283e+02	1.280762e+02	7.998098e+00	1.084833e-05	1.073661e-05	0.000000e+00	0.000000e+00	0.000000e+00	0.000000e+00	
-2.126394e-02	1.103278e-01	2.154876e-02	2.154473e-05	3.936275e+01	3.876935e-04	3.864268e+04	3.531032e-08	9.990012e-01	9.988145e-04	8.018644e+02	1.251247e+02	1.280762e+02	7.998218e+00	1.014698e-05	1.073643e-05	0.000000e+00	0.000000e+00	0.000000e+00	0.000000e+00	
-2.475371e-02	1.095976e-01	2.154872e-02	2.154622e-05	3.936269e+01	3.487452e-04	3.864263e+04	3.531019e-08	9.990011e-01	9.988854e-04	8.018417e+02	1.251213e+02	1.280762e+02	7.998326e+00	9.513993e-06	1.073626e-05	0.000000e+00	0.000000e+00	0.000000e+00	0.000000e+00	
-2.821855e-02	1.087570e-01	2.154868e-02	2.154756e-05	3.936263e+01	3.139946e-04	3.864258e+04	3.531006e-08	9.990011e-01	9.989493e-04	8.018212e+02	1.251184e+02	1.280762e+02	7.998423e+00	8.943630e-06	1.073611e-05	0.000000e+00	0.000000e+00	0.000000e+00	0.000000e+00	
-3.165498e-02	1.078070e-01	2.154864e-02	2.154877e-05	3.936257e+01	2.831127e-04	3.864254e+04	3.530995e-08	9.990010e-01	9.990068e-04	8.018028e+02	1.251157e+02	1.280762e+02	7.998511e+00	8.429788e-06	1.073598e-05	0.000000e+00	0.000000e+00	0.000000e+00	0.000000e+00	
-3.505953e-02	1.067483e-01	2.154861e-02	2.154986e-05	3.936253e+01	2.557165e-04	3.864250e+04	3.530986e-08	9.990009e-01	9.990587e-04	8.017861e+02	1.251132e+02	1.280762e+02	7.998590e+00	7.966529e-06	1.073586e-05	0.000000e+00	0.000000e+00	0.000000e+00	0.000000e+00	
-3.842878e-02	1.055822e-01	2.154858e-02	2.155084e-05	3.936249e+01	2.314189e-04	3.864246e+04	3.530977e-08	9.990009e-01	9.991058e-04	8.017711e+02	1.251111e+02	1.280762e+02	7.998662e+00	7.548329e-06	1.073575e-05	0.000000e+00	0.000000e+00	0.000000e+00	0.000000e+00	