TITLE = "Visualization of the volumetric solution"
VARIABLES = "x" "y" "Density[0]" "Density[1]" "Density[2]" "Density[3]" "Density[4]" "Momentum_x" "Momentum_y" "Energy" "Electronic Energy" "Total Density" "Pressure" "Temperature" "Tve" "Mach" "C<sub>p</sub>" 
ZONE NODES= 36, ELEMENTS= 25, DATAPACKING=POINT, ZONETYPE=FEQUADRILATERAL
0.000000e+00	0.000000e+00	0.000000e+00	0.000000e+00	0.000000e+00	9.231334e-01	2.453899e-01	8.142747e+01	0.000000e+00	-9.629699e+04	8.429492e+01	1.168523e+00	1.013250e+05	3.000000e+02	3.000000e+02	1.999998e-01	0.000000e+00	
2.000000e-01	0.000000e+00	0.000000e+00	0.000000e+00	0.000000e+00	9.231334e-01	2.453899e-01	8.142747e+01	0.000000e+00	-9.629699e+04	8.429492e+01	1.168523e+00	1.013250e+05	3.000000e+02	3.000000e+02	1.999998e-01	0.000000e+00	
4.000000e-01	0.000000e+00	0.000000e+00	0.000000e+00	0.000000e+00	9.231334e-01	2.453899e-01	8.142747e+01	1.631459e-14	-9.629699e+04	8.429492e+01	1.168523e+00	1.013250e+05	3.000000e+02	3.000000e+02	1.999998e-01	0.000000e+00	
6.000000e-01	0.000000e+00	0.000000e+00	0.000000e+00	0.000000e+00	9.231334e-01	2.453899e-01	8.142747e+01	0.000000e+00	-9.629699e+04	8.429492e+01	1.168523e+00	1.013250e+05	3.000000e+02	3.000000e+02	1.999998e-01	0.000000e+00	
8.000000e-01	0.000000e+00	0.000000e+00	0.000000e+00	0.000000e+00	9.231334e-01	2.453899e-01	8.142747e+01	0.000000e+00	-9.629699e+04	8.429492e+01	1.168523e+00	1.013250e+05	3.000000e+02	3.000000e+02	1.999998e-01	0.000000e+00	
1.000000e+00	0.000000e+00	0.000000e+00	0.000000e+00	0.000000e+00	9.231334e-01	2.453899e-01	8.142747e+01	0.000000e+00	-9.629699e+04	8.429492e+01	1.168523e+00	1.013250e+05	3.000000e+02	3.000000e+02	1.999998e-01	0.000000e+00	
0.000000e+00	2.000000e-01	0.000000e+00	0.000000e+00	0.000000e+00	9.231334e-01	2.453899e-01	8.142747e+01	0.000000e+00	-9.629699e+04	8.429492e+01	1.168523e+00	1.013250e+05	3.000000e+02	3.000000e+02	1.999998e-01	0.000000e+00	
2.000000e-01	2.000000e-01	0.000000e+00	0.000000e+00	0.000000e+00	9.231334e-01	2.453899e-01	8.142747e+01	-4.746064e-14	-9.629699e+04	8.429492e+01	1.168523e+00	1.013250e+05	3.000000e+02	3.000000e+02	1.999998e-01	0.000000e+00	
4.000000e-01	2.000000e-01	0.000000e+00	0.000000e+00	0.000000e+00	9.231334e-01	2.453899e-01	8.142747e+01	0.000000e+00	-9.629699e+04	8.429492e+01	1.168523e+00	1.013250e+05	3.000000e+02	3.000000e+02	1.999998e-01	0.000000e+00	
6.000000e-01	2.000000e-01	0.000000e+00	0.000000e+00	0.000000e+00	9.231334e-01	2.453899e-01	8.142747e+01	0.000000e+00	-9.629699e+04	8.429492e+01	1.168523e+00	1.013250e+05	3.000000e+02	3.000000e+02	1.999998e-01	0.000000e+00	
8.000000e-01	2.000000e-01	0.000000e+00	0.000000e+00	0.000000e+00	9.231334e-01	2.453899e-01	8.142747e+01	0.000000e+00	-9.629699e+04	8.429492e+01	1.168523e+00	1.013250e+05	3.000000e+02	3.000000e+02	1.999998e-01	0.000000e+00	
1.000000e+00	2.000000e-01	0.000000e+00	0.000000e+00	0.000000e+00	9.231334e-01	2.453899e-01	8.142747e+01	0.000000e+00	-9.629699e+04	8.429492e+01	1.168523e+00	1.013250e+05	3.000000e+02	3.000000e+02	1.999998e-01	0.000000e+00	
0.000000e+00	4.000000e-01	0.000000e+00	0.000000e+00	0.000000e+00	9.231334e-01	2.453899e-01	8.142747e+01	0.000000e+00	-9.629699e+04	8.429492e+01	1.168523e+00	1.013250e+05	3.000000e+02	3.000000e+02	1.999998e-01	0.000000e+00	
2.000000e-01	4.000000e-01	0.000000e+00	0.000000e+00	0.000000e+00	9.231334e-01	2.453899e-01	8.142747e+01	-2.373032e-14	-9.629699e+04	8.429492e+01	1.168523e+00	1.013250e+05	3.000000e+02	3.000000e+02	1.999998e-01	0.000000e+00	
4.000000e-01	4.000000e-01	0.000000e+00	0.000000e+00	0.000000e+00	9.231334e-01	2.453899e-01	8.142747e+01	0.000000e+00	-9.629699e+04	8.429492e+01	1.168523e+00	1.013250e+05	3.000000e+02	3.000000e+02	1.999998e-01	0.000000e+00	
6.000000e-01	4.000000e-01	0.000000e+00	0.000000e+00	0.000000e+00	9.231334e-01	2.453899e-01	8.142747e+01	1.186516e-14	-9.629699e+04	8.429492e+01	1.168523e+00	1.013250e+05	3.000000e+02	3.000000e+02	1.999998e-01	0.000000e+00	
8.000000e-01	4.000000e-01	0.000000e+00	0.000000e+00	0.000000e+00	9.231334e-01	2.453899e-01	8.142747e+01	0.000000e+00	-9.629699e+04	8.429492e+01	1.168523e+00	1.013250e+05	3.000000e+02	3.000000e+02	1.999998e-01	0.000000e+00	
1.000000e+00	4.000000e-01	0.000000e+00	0.000000e+00	0.000000e+00	9.231334e-01	2.453899e-01	8.142747e+01	0.000000e+00	-9.629699e+04	8.429492e+01	1.168523e+00	1.013250e+05	3.000000e+02	3.000000e+02	1.999998e-01	0.000000e+00	
0.000000e+00	6.000000e-01	0.000000e+00	0.000000e+00	0.000000e+00	9.231334e-01	2.453899e-01	8.142747e+01	0.000000e+00	-9.629699e+04	8.429492e+01	1.168523e+00	1.013250e+05	3.000000e+02	3.000000e+02	1.999998e-01	0.000000e+00	
2.000000e-01	6.000000e-01	0.000000e+00	0.000000e+00	0.000000e+00	9.231334e-01	2.453899e-01	8.142747e+01	-1.186516e-14	-9.629699e+04	8.429492e+01	1.168523e+00	1.013250e+05	3.000000e+02	3.000000e+02	1.999998e-01	0.000000e+00	
4.000000e-01	6.000000e-01	0.000000e+00	0.000000e+00	0.000000e+00	9.231334e-01	2.453899e-01	8.142747e+01	0.000000e+00	-9.629699e+04	8.429492e+01	1.168523e+00	1.013250e+05	3.000000e+02	3.000000e+02	1.999998e-01	0.000000e+00	
6.000000e-01	6.000000e-01	0.000000e+00	0.000000e+00	0.000000e+00	9.231334e-01	2.453899e-01	8.142747e+01	4.746064e-14	-9.629699e+04	8.429492e+01	1.168523e+00	1.013250e+05	3.000000e+02	3.000000e+02	1.999998e-01	-1.025831e-14	
8.000000e-01	6.000000e-01	0.000000e+00	0.000000e+00	0.000000e+00	9.231334e-01	2.453899e-01	8.142747e+01	0.000000e+00	-9.629699e+04	8.429492e+01	1.168523e+00	1.013250e+05	3.000000e+02	3.000000e+02	1.999998e-01	0.000000e+00	
1.000000e+00	6.000000e-01	0.000000e+00	0.000000e+00	0.000000e+00	9.231334e-01	2.453899e-01	8.142747e+01	0.000000e+00	-9.629699e+04	8.429492e+01	1.168523e+00	1.013250e+05	3.000000e+02	3.000000e+02	1.999998e-01	0.000000e+00	
0.000000e+00	8.000000e-01	0.000000e+00	0.000000e+00	0.000000e+00	9.231334e-01	2.453899e-01	8.142747e+01	0.000000e+00	-9.629699e+04	8.429492e+01	1.168523e+00	1.013250e+05	3.000000e+02	3.000000e+02	1.999998e-01	0.000000e+00	
2.000000e-01	8.000000e-01	0.000000e+00	0.000000e+00	0.000000e+00	9.231334e-01	2.453899e-01	8.142747e+01	0.000000e+00	-9.629699e+04	8.429492e+01	1.168523e+00	1.013250e+05	3.000000e+02	3.000000e+02	1.999998e-01	0.000000e+00	
4.000000e-01	8.000000e-01	0.000000e+00	0.000000e+00	0.000000e+00	9.231334e-01	2.453899e-01	8.142747e+01	0.000000e+00	-9.629699e+04	8.429492e+01	1.168523e+00	1.013250e+05	3.000000e+02	3.000000e+02	1.999998e-01	0.000000e+00	
6.000000e-01	8.000000e-01	0.000000e+00	0.000000e+00	0.000000e+00	9.231334e-01	2.453899e-01	8.142747e+01	1.305168e-13	-9.629699e+04	8.429492e+01	1.168523e+00	1.013250e+05	3.000000e+02	3.000000e+02	1.999998e-01	0.000000e+00	
8.000000e-01	8.000000e-01	0.000000e+00	0.000000e+00	0.000000e+00	9.231334e-01	2.453899e-01	8.142747e+01	1.186516e-14	-9.629699e+04	8.429492e+01	1.168523e+00	1.013250e+05	3.000000e+02	3.000000e+02	1.999998e-01	0.000000e+00	
1.000000e+00	8.000000e-01	0.000000e+00	0.000000e+00	0.000000e+00	9.231334e-01	2.453899e-01	8.142747e+01	0.000000e+00	-9.629699e+04	8.429492e+01	1.168523e+00	1.013250e+05	3.000000e+02	3.000000e+02	1.999998e-01	0.000000e+00	
0.000000e+00	1.000000e+00	0.000000e+00	0.000000e+00	0.000000e+00	9.231334e-01	2.453899e-01	8.142747e+01	0.000000e+00	-9.629699e+04	8.429492e+01	1.168523e+00	1.013250e+05	3.000000e+02	3.000000e+02	1.999998e-01	0.000000e+00	
2.000000e-01	1.000000e+00	0.000000e+00	0.000000e+00	0.000000e+00	9.231334e-01	2.453899e-01	8.142747e+01	0.000000e+00	-9.629699e+04	8.429492e+01	1.168523e+00	1.013250e+05	3.000000e+02	3.000000e+02	1.999998e-01	0.000000e+00	
4.000000e-01	1.000000e+00	0.000000e+00	0.000000e+00	0.000000e+00	9.231334e-01	2.453899e-01	8.142747e+01	0.000000e+00	-9.629699e+04	8.429492e+01	1.168523e+00	1.013250e+05	3.000000e+02	3.000000e+02	1.999998e-01	0.000000e+00	
6.000000e-01	1.000000e+00	0.000000e+00	0.000000e+00	0.000000e+00	9.231334e-01	2.453899e-01	8.142747e+01	3.262919e-14	-9.629699e+04	8.429492e+01	1.168523e+00	1.013250e+05	3.000000e+02	3.000000e+02	1.999998e-01	5.129153e-15	
8.000000e-01	1.000000e+00	0.000000e+00	0.000000e+00	0.000000e+00	9.231334e-01	2.453899e-01	8.142747e+01	0.000000e+00	-9.629699e+04	8.429492e+01	1.168523e+00	1.013250e+05	3.000000e+02	3.000000e+02	1.999998e-01	0.000000e+00	
1.000000e+00	1.000000e+00	0.000000e+00	0.000000e+00	0.000000e+00	9.231334e-01	2.453899e-01	8.142747e+01	0.000000e+00	-9.629699e+04	8.429492e+01	1.168523e+00	1.013250e+05	3.000000e+02	3.000000e+02	1.999998e-01	0.000000e+00	
1	2	8	7
2	3	9	8
3	4	10	9
4	5	11	10
5	6	12	11
7	8	14	13
8	9	15	14
9	10	16	15
10	11	17	16
11	12	18	17
13	14	20	19
14	15	21	20
15	16	22	21
16	17	23	22
17	18	24	23
19	20	26	25
20	21	27	26
21	22	28	27
22	23	29	28
23	24	30	29
25	26	32	31
26	27	33	32
27	28	34	33
28	29	35	34
29	30	36	35
