TITLE = "Visualization of the volumetric solution"
VARIABLES = "x","y","Density[0]","Density[1]","Momentum_x","Momentum_y","Energy","Electronic Energy","Total Density","Pressure","Temperature","Tve","Mach","C<sub>p</sub>"
ZONE NODES= 121, ELEMENTS= 100, DATAPACKING=POINT, ZONETYPE=FEQUADRILATERAL
0.000000e+00	0.000000e+00	1.115427e+00	1.126693e-02	2.001197e+03	-2.791714e-31	2.058111e+06	1.312854e+01	1.126693e+00	1.013250e+05	3.000000e+02	3.000000e+02	5.000000e+00	-1.637593e-17	
0.000000e+00	1.000000e+00	1.115427e+00	1.126693e-02	2.001197e+03	0.000000e+00	2.058111e+06	1.312854e+01	1.126693e+00	1.013250e+05	3.000000e+02	3.000000e+02	5.000000e+00	-1.637593e-17	
1.000000e+00	0.000000e+00	1.115427e+00	1.126693e-02	2.001197e+03	-1.000356e-14	2.058111e+06	1.312854e+01	1.126693e+00	1.013250e+05	3.000000e+02	3.000000e+02	5.000000e+00	-1.637593e-17	
1.000000e+00	1.000000e+00	1.115427e+00	1.126693e-02	2.001197e+03	0.000000e+00	2.058111e+06	1.312854e+01	1.126693e+00	1.013250e+05	3.000000e+02	3.000000e+02	5.000000e+00	-1.637593e-17	
0.000000e+00	1.000000e-01	1.115427e+00	1.126693e-02	2.001197e+03	-2.093786e-31	2.058111e+06	1.312854e+01	1.126693e+00	1.013250e+05	3.000000e+02	3.000000e+02	5.000000e+00	-2.456390e-17	
0.000000e+00	2.000000e-01	1.115427e+00	1.126693e-02	2.001197e+03	-1.015169e-31	2.058111e+06	1.312854e+01	1.126693e+00	1.013250e+05	3.000000e+02	3.000000e+02	5.000000e+00	-1.637593e-17	
0.000000e+00	3.000000e-01	1.115427e+00	1.126693e-02	2.001197e+03	2.954463e-42	2.058111e+06	1.312854e+01	1.126693e+00	1.013250e+05	3.000000e+02	3.000000e+02	5.000000e+00	-1.637593e-17	
0.000000e+00	4.000000e-01	1.115427e+00	1.126693e-02	2.001197e+03	2.030337e-31	2.058111e+06	1.312854e+01	1.126693e+00	1.013250e+05	3.000000e+02	3.000000e+02	5.000000e+00	-1.637593e-17	
0.000000e+00	5.000000e-01	1.115427e+00	1.126693e-02	2.001197e+03	5.075844e-32	2.058111e+06	1.312854e+01	1.126693e+00	1.013250e+05	3.000000e+02	3.000000e+02	5.000000e+00	-8.187967e-18	
0.000000e+00	6.000000e-01	1.115427e+00	1.126693e-02	2.001197e+03	-3.045506e-31	2.058111e+06	1.312854e+01	1.126693e+00	1.013250e+05	3.000000e+02	3.000000e+02	5.000000e+00	-2.456390e-17	
0.000000e+00	7.000000e-01	1.115427e+00	1.126693e-02	2.001197e+03	0.000000e+00	2.058111e+06	1.312854e+01	1.126693e+00	1.013250e+05	3.000000e+02	3.000000e+02	5.000000e+00	-1.637593e-17	
0.000000e+00	8.000000e-01	1.115427e+00	1.126693e-02	2.001197e+03	0.000000e+00	2.058111e+06	1.312854e+01	1.126693e+00	1.013250e+05	3.000000e+02	3.000000e+02	5.000000e+00	-1.637593e-17	
0.000000e+00	9.000000e-01	1.115427e+00	1.126693e-02	2.001197e+03	0.000000e+00	2.058111e+06	1.312854e+01	1.126693e+00	1.013250e+05	3.000000e+02	3.000000e+02	5.000000e+00	-2.456390e-17	
1.000000e-01	1.000000e+00	1.115427e+00	1.126693e-02	2.001197e+03	0.000000e+00	2.058111e+06	1.312854e+01	1.126693e+00	1.013250e+05	3.000000e+02	3.000000e+02	5.000000e+00	-2.456390e-17	
2.000000e-01	1.000000e+00	1.115427e+00	1.126693e-02	2.001197e+03	0.000000e+00	2.058111e+06	1.312854e+01	1.126693e+00	1.013250e+05	3.000000e+02	3.000000e+02	5.000000e+00	-1.637593e-17	
3.000000e-01	1.000000e+00	1.115427e+00	1.126693e-02	2.001197e+03	0.000000e+00	2.058111e+06	1.312854e+01	1.126693e+00	1.013250e+05	3.000000e+02	3.000000e+02	5.000000e+00	-2.456390e-17	
4.000000e-01	1.000000e+00	1.115427e+00	1.126693e-02	2.001197e+03	0.000000e+00	2.058111e+06	1.312854e+01	1.126693e+00	1.013250e+05	3.000000e+02	3.000000e+02	5.000000e+00	-1.637593e-17	
5.000000e-01	1.000000e+00	1.115427e+00	1.126693e-02	2.001197e+03	0.000000e+00	2.058111e+06	1.312854e+01	1.126693e+00	1.013250e+05	3.000000e+02	3.000000e+02	5.000000e+00	-1.637593e-17	
6.000000e-01	1.000000e+00	1.115427e+00	1.126693e-02	2.001197e+03	0.000000e+00	2.058111e+06	1.312854e+01	1.126693e+00	1.013250e+05	3.000000e+02	3.000000e+02	5.000000e+00	-2.456390e-17	
7.000000e-01	1.000000e+00	1.115427e+00	1.126693e-02	2.001197e+03	0.000000e+00	2.058111e+06	1.312854e+01	1.126693e+00	1.013250e+05	3.000000e+02	3.000000e+02	5.000000e+00	-1.637593e-17	
8.000000e-01	1.000000e+00	1.115427e+00	1.126693e-02	2.001197e+03	0.000000e+00	2.058111e+06	1.312854e+01	1.126693e+00	1.013250e+05	3.000000e+02	3.000000e+02	5.000000e+00	-2.456390e-17	
9.000000e-01	1.000000e+00	1.115427e+00	1.126693e-02	2.001197e+03	0.000000e+00	2.058111e+06	1.312854e+01	1.126693e+00	1.013250e+05	3.000000e+02	3.000000e+02	5.000000e+00	-1.637593e-17	
1.000000e+00	9.000000e-01	1.115427e+00	1.126693e-02	2.001197e+03	0.000000e+00	2.058111e+06	1.312854e+01	1.126693e+00	1.013250e+05	3.000000e+02	3.000000e+02	5.000000e+00	-1.637593e-17	
1.000000e+00	8.000000e-01	1.115427e+00	1.126693e-02	2.001197e+03	0.000000e+00	2.058111e+06	1.312854e+01	1.126693e+00	1.013250e+05	3.000000e+02	3.000000e+02	5.000000e+00	-1.637593e-17	
1.000000e+00	7.000000e-01	1.115427e+00	1.126693e-02	2.001197e+03	0.000000e+00	2.058111e+06	1.312854e+01	1.126693e+00	1.013250e+05	3.000000e+02	3.000000e+02	5.000000e+00	-2.456390e-17	
1.000000e+00	6.000000e-01	1.115427e+00	1.126693e-02	2.001197e+03	0.000000e+00	2.058111e+06	1.312854e+01	1.126693e+00	1.013250e+05	3.000000e+02	3.000000e+02	5.000000e+00	-1.637593e-17	
1.000000e+00	5.000000e-01	1.115427e+00	1.126693e-02	2.001197e+03	0.000000e+00	2.058111e+06	1.312854e+01	1.126693e+00	1.013250e+05	3.000000e+02	3.000000e+02	5.000000e+00	-2.456390e-17	
1.000000e+00	4.000000e-01	1.115427e+00	1.126693e-02	2.001197e+03	-1.002990e-26	2.058111e+06	1.312854e+01	1.126693e+00	1.013250e+05	3.000000e+02	3.000000e+02	5.000000e+00	-3.275187e-17	
1.000000e+00	3.000000e-01	1.115427e+00	1.126693e-02	2.001197e+03	6.023958e-16	2.058111e+06	1.312854e+01	1.126693e+00	1.013250e+05	3.000000e+02	3.000000e+02	5.000000e+00	-1.637593e-17	
1.000000e+00	2.000000e-01	1.115427e+00	1.126693e-02	2.001197e+03	1.204792e-15	2.058111e+06	1.312854e+01	1.126693e+00	1.013250e+05	3.000000e+02	3.000000e+02	5.000000e+00	-8.187967e-18	
1.000000e+00	1.000000e-01	1.115427e+00	1.126693e-02	2.001197e+03	-4.399384e-15	2.058111e+06	1.312854e+01	1.126693e+00	1.013250e+05	3.000000e+02	3.000000e+02	5.000000e+00	-8.187967e-18	
9.000000e-01	0.000000e+00	1.115427e+00	1.126693e-02	2.001197e+03	-1.140246e-14	2.058111e+06	1.312854e+01	1.126693e+00	1.013250e+05	3.000000e+02	3.000000e+02	5.000000e+00	-2.456390e-17	
8.000000e-01	0.000000e+00	1.115427e+00	1.126693e-02	2.001197e+03	-1.280136e-14	2.058111e+06	1.312854e+01	1.126693e+00	1.013250e+05	3.000000e+02	3.000000e+02	5.000000e+00	-1.637593e-17	
7.000000e-01	0.000000e+00	1.115427e+00	1.126693e-02	2.001197e+03	-9.601019e-15	2.058111e+06	1.312854e+01	1.126693e+00	1.013250e+05	3.000000e+02	3.000000e+02	5.000000e+00	-2.456390e-17	
6.000000e-01	0.000000e+00	1.115427e+00	1.126693e-02	2.001197e+03	-6.400679e-15	2.058111e+06	1.312854e+01	1.126693e+00	1.013250e+05	3.000000e+02	3.000000e+02	5.000000e+00	-1.637593e-17	
5.000000e-01	0.000000e+00	1.115427e+00	1.126693e-02	2.001197e+03	-9.601019e-15	2.058111e+06	1.312854e+01	1.126693e+00	1.013250e+05	3.000000e+02	3.000000e+02	5.000000e+00	-2.456390e-17	
4.000000e-01	0.000000e+00	1.115427e+00	1.126693e-02	2.001197e+03	-1.280136e-14	2.058111e+06	1.312854e+01	1.126693e+00	1.013250e+05	3.000000e+02	3.000000e+02	5.000000e+00	-1.637593e-17	
3.000000e-01	0.000000e+00	1.115427e+00	1.126693e-02	2.001197e+03	-9.601019e-15	2.058111e+06	1.312854e+01	1.126693e+00	1.013250e+05	3.000000e+02	3.000000e+02	5.000000e+00	-1.637593e-17	
2.000000e-01	0.000000e+00	1.115427e+00	1.126693e-02	2.001197e+03	-6.400679e-15	2.058111e+06	1.312854e+01	1.126693e+00	1.013250e+05	3.000000e+02	3.000000e+02	5.000000e+00	-1.637593e-17	
1.000000e-01	0.000000e+00	1.115427e+00	1.126693e-02	2.001197e+03	-3.200340e-15	2.058111e+06	1.312854e+01	1.126693e+00	1.013250e+05	3.000000e+02	3.000000e+02	5.000000e+00	-1.637593e-17	
1.000000e-01	9.000000e-01	1.115427e+00	1.126693e-02	2.001197e+03	0.000000e+00	2.058111e+06	1.312854e+01	1.126693e+00	1.013250e+05	3.000000e+02	3.000000e+02	5.000000e+00	-1.637593e-17	
1.000000e-01	8.000000e-01	1.115427e+00	1.126693e-02	2.001197e+03	0.000000e+00	2.058111e+06	1.312854e+01	1.126693e+00	1.013250e+05	3.000000e+02	3.000000e+02	5.000000e+00	-1.637593e-17	
1.000000e-01	7.000000e-01	1.115427e+00	1.126693e-02	2.001197e+03	0.000000e+00	2.058111e+06	1.312854e+01	1.126693e+00	1.013250e+05	3.000000e+02	3.000000e+02	5.000000e+00	-1.637593e-17	
1.000000e-01	6.000000e-01	1.115427e+00	1.126693e-02	2.001197e+03	-7.413473e-27	2.058111e+06	1.312854e+01	1.126693e+00	1.013250e+05	3.000000e+02	3.000000e+02	5.000000e+00	-1.637593e-17	
1.000000e-01	5.000000e-01	1.115427e+00	1.126693e-02	2.001197e+03	-9.143827e-16	2.058111e+06	1.312854e+01	1.126693e+00	1.013250e+05	3.000000e+02	3.000000e+02	5.000000e+00	-2.456390e-17	
1.000000e-01	4.000000e-01	1.115427e+00	1.126693e-02	2.001197e+03	-1.828765e-15	2.058111e+06	1.312854e+01	1.126693e+00	1.013250e+05	3.000000e+02	3.000000e+02	5.000000e+00	-2.456390e-17	
1.000000e-01	3.000000e-01	1.115427e+00	1.126693e-02	2.001197e+03	9.812641e-27	2.058111e+06	1.312854e+01	1.126693e+00	1.013250e+05	3.000000e+02	3.000000e+02	5.000000e+00	-2.456390e-17	
1.000000e-01	2.000000e-01	1.115427e+00	1.126693e-02	2.001197e+03	1.828765e-15	2.058111e+06	1.312854e+01	1.126693e+00	1.013250e+05	3.000000e+02	3.000000e+02	5.000000e+00	-1.637593e-17	
1.000000e-01	1.000000e-01	1.115427e+00	1.126693e-02	2.001197e+03	-6.857870e-16	2.058111e+06	1.312854e+01	1.126693e+00	1.013250e+05	3.000000e+02	3.000000e+02	5.000000e+00	-1.637593e-17	
2.000000e-01	9.000000e-01	1.115427e+00	1.126693e-02	2.001197e+03	0.000000e+00	2.058111e+06	1.312854e+01	1.126693e+00	1.013250e+05	3.000000e+02	3.000000e+02	5.000000e+00	-2.456390e-17	
2.000000e-01	8.000000e-01	1.115427e+00	1.126693e-02	2.001197e+03	0.000000e+00	2.058111e+06	1.312854e+01	1.126693e+00	1.013250e+05	3.000000e+02	3.000000e+02	5.000000e+00	-1.637593e-17	
2.000000e-01	7.000000e-01	1.115427e+00	1.126693e-02	2.001197e+03	0.000000e+00	2.058111e+06	1.312854e+01	1.126693e+00	1.013250e+05	3.000000e+02	3.000000e+02	5.000000e+00	-1.637593e-17	
2.000000e-01	6.000000e-01	1.115427e+00	1.126693e-02	2.001197e+03	-1.035898e-26	2.058111e+06	1.312854e+01	1.126693e+00	1.013250e+05	3.000000e+02	3.000000e+02	5.000000e+00	-2.456390e-17	
2.000000e-01	5.000000e-01	1.115427e+00	1.126693e-02	2.001197e+03	-1.828765e-15	2.058111e+06	1.312854e+01	1.126693e+00	1.013250e+05	3.000000e+02	3.000000e+02	5.000000e+00	-1.637593e-17	
2.000000e-01	4.000000e-01	1.115427e+00	1.126693e-02	2.001197e+03	-3.657531e-15	2.058111e+06	1.312854e+01	1.126693e+00	1.013250e+05	3.000000e+02	3.000000e+02	5.000000e+00	-1.637593e-17	
2.000000e-01	3.000000e-01	1.115427e+00	1.126693e-02	2.001197e+03	1.236855e-26	2.058111e+06	1.312854e+01	1.126693e+00	1.013250e+05	3.000000e+02	3.000000e+02	5.000000e+00	-1.637593e-17	
2.000000e-01	2.000000e-01	1.115427e+00	1.126693e-02	2.001197e+03	3.657531e-15	2.058111e+06	1.312854e+01	1.126693e+00	1.013250e+05	3.000000e+02	3.000000e+02	5.000000e+00	-2.456390e-17	
2.000000e-01	1.000000e-01	1.115427e+00	1.126693e-02	2.001197e+03	-1.371574e-15	2.058111e+06	1.312854e+01	1.126693e+00	1.013250e+05	3.000000e+02	3.000000e+02	5.000000e+00	-2.456390e-17	
3.000000e-01	9.000000e-01	1.115427e+00	1.126693e-02	2.001197e+03	0.000000e+00	2.058111e+06	1.312854e+01	1.126693e+00	1.013250e+05	3.000000e+02	3.000000e+02	5.000000e+00	-1.637593e-17	
3.000000e-01	8.000000e-01	1.115427e+00	1.126693e-02	2.001197e+03	0.000000e+00	2.058111e+06	1.312854e+01	1.126693e+00	1.013250e+05	3.000000e+02	3.000000e+02	5.000000e+00	-2.456390e-17	
3.000000e-01	7.000000e-01	1.115427e+00	1.126693e-02	2.001197e+03	0.000000e+00	2.058111e+06	1.312854e+01	1.126693e+00	1.013250e+05	3.000000e+02	3.000000e+02	5.000000e+00	-2.456390e-17	
3.000000e-01	6.000000e-01	1.115427e+00	1.126693e-02	2.001197e+03	-5.895999e-27	2.058111e+06	1.312854e+01	1.126693e+00	1.013250e+05	3.000000e+02	3.000000e+02	5.000000e+00	-1.637593e-17	
3.000000e-01	5.000000e-01	1.115427e+00	1.126693e-02	2.001197e+03	-1.828765e-15	2.058111e+06	1.312854e+01	1.126693e+00	1.013250e+05	3.000000e+02	3.000000e+02	5.000000e+00	-1.637593e-17	
3.000000e-01	4.000000e-01	1.115427e+00	1.126693e-02	2.001197e+03	-3.657531e-15	2.058111e+06	1.312854e+01	1.126693e+00	1.013250e+05	3.000000e+02	3.000000e+02	5.000000e+00	-1.637593e-17	
3.000000e-01	3.000000e-01	1.115427e+00	1.126693e-02	2.001197e+03	5.112016e-27	2.058111e+06	1.312854e+01	1.126693e+00	1.013250e+05	3.000000e+02	3.000000e+02	5.000000e+00	-1.637593e-17	
3.000000e-01	2.000000e-01	1.115427e+00	1.126693e-02	2.001197e+03	3.657531e-15	2.058111e+06	1.312854e+01	1.126693e+00	1.013250e+05	3.000000e+02	3.000000e+02	5.000000e+00	-1.637593e-17	
3.000000e-01	1.000000e-01	1.115427e+00	1.126693e-02	2.001197e+03	-2.971744e-15	2.058111e+06	1.312854e+01	1.126693e+00	1.013250e+05	3.000000e+02	3.000000e+02	5.000000e+00	-2.456390e-17	
4.000000e-01	9.000000e-01	1.115427e+00	1.126693e-02	2.001197e+03	0.000000e+00	2.058111e+06	1.312854e+01	1.126693e+00	1.013250e+05	3.000000e+02	3.000000e+02	5.000000e+00	-1.637593e-17	
4.000000e-01	8.000000e-01	1.115427e+00	1.126693e-02	2.001197e+03	0.000000e+00	2.058111e+06	1.312854e+01	1.126693e+00	1.013250e+05	3.000000e+02	3.000000e+02	5.000000e+00	-1.637593e-17	
4.000000e-01	7.000000e-01	1.115427e+00	1.126693e-02	2.001197e+03	0.000000e+00	2.058111e+06	1.312854e+01	1.126693e+00	1.013250e+05	3.000000e+02	3.000000e+02	5.000000e+00	-2.456390e-17	
4.000000e-01	6.000000e-01	1.115427e+00	1.126693e-02	2.001197e+03	-1.429662e-27	2.058111e+06	1.312854e+01	1.126693e+00	1.013250e+05	3.000000e+02	3.000000e+02	5.000000e+00	-1.637593e-17	
4.000000e-01	5.000000e-01	1.115427e+00	1.126693e-02	2.001197e+03	-1.828765e-15	2.058111e+06	1.312854e+01	1.126693e+00	1.013250e+05	3.000000e+02	3.000000e+02	5.000000e+00	-1.637593e-17	
4.000000e-01	4.000000e-01	1.115427e+00	1.126693e-02	2.001197e+03	-3.657531e-15	2.058111e+06	1.312854e+01	1.126693e+00	1.013250e+05	3.000000e+02	3.000000e+02	5.000000e+00	-1.637593e-17	
4.000000e-01	3.000000e-01	1.115427e+00	1.126693e-02	2.001197e+03	-9.983546e-27	2.058111e+06	1.312854e+01	1.126693e+00	1.013250e+05	3.000000e+02	3.000000e+02	5.000000e+00	-8.187967e-18	
4.000000e-01	2.000000e-01	1.115427e+00	1.126693e-02	2.001197e+03	3.657531e-15	2.058111e+06	1.312854e+01	1.126693e+00	1.013250e+05	3.000000e+02	3.000000e+02	5.000000e+00	-1.637593e-17	
4.000000e-01	1.000000e-01	1.115427e+00	1.126693e-02	2.001197e+03	-4.571914e-15	2.058111e+06	1.312854e+01	1.126693e+00	1.013250e+05	3.000000e+02	3.000000e+02	5.000000e+00	-1.637593e-17	
5.000000e-01	9.000000e-01	1.115427e+00	1.126693e-02	2.001197e+03	0.000000e+00	2.058111e+06	1.312854e+01	1.126693e+00	1.013250e+05	3.000000e+02	3.000000e+02	5.000000e+00	-1.637593e-17	
5.000000e-01	8.000000e-01	1.115427e+00	1.126693e-02	2.001197e+03	0.000000e+00	2.058111e+06	1.312854e+01	1.126693e+00	1.013250e+05	3.000000e+02	3.000000e+02	5.000000e+00	-8.187967e-18	
5.000000e-01	7.000000e-01	1.115427e+00	1.126693e-02	2.001197e+03	0.000000e+00	2.058111e+06	1.312854e+01	1.126693e+00	1.013250e+05	3.000000e+02	3.000000e+02	5.000000e+00	-1.637593e-17	
5.000000e-01	6.000000e-01	1.115427e+00	1.126693e-02	2.001197e+03	3.036268e-27	2.058111e+06	1.312854e+01	1.126693e+00	1.013250e+05	3.000000e+02	3.000000e+02	5.000000e+00	-2.456390e-17	
5.000000e-01	5.000000e-01	1.115427e+00	1.126693e-02	2.001197e+03	-1.828765e-15	2.058111e+06	1.312854e+01	1.126693e+00	1.013250e+05	3.000000e+02	3.000000e+02	5.000000e+00	-1.637593e-17	
5.000000e-01	4.000000e-01	1.115427e+00	1.126693e-02	2.001197e+03	-3.657531e-15	2.058111e+06	1.312854e+01	1.126693e+00	1.013250e+05	3.000000e+02	3.000000e+02	5.000000e+00	-1.637593e-17	
5.000000e-01	3.000000e-01	1.115427e+00	1.126693e-02	2.001197e+03	-9.143827e-16	2.058111e+06	1.312854e+01	1.126693e+00	1.013250e+05	3.000000e+02	3.000000e+02	5.000000e+00	-2.456390e-17	
5.000000e-01	2.000000e-01	1.115427e+00	1.126693e-02	2.001197e+03	1.828765e-15	2.058111e+06	1.312854e+01	1.126693e+00	1.013250e+05	3.000000e+02	3.000000e+02	5.000000e+00	-3.275187e-17	
5.000000e-01	1.000000e-01	1.115427e+00	1.126693e-02	2.001197e+03	-3.886127e-15	2.058111e+06	1.312854e+01	1.126693e+00	1.013250e+05	3.000000e+02	3.000000e+02	5.000000e+00	-2.456390e-17	
6.000000e-01	9.000000e-01	1.115427e+00	1.126693e-02	2.001197e+03	0.000000e+00	2.058111e+06	1.312854e+01	1.126693e+00	1.013250e+05	3.000000e+02	3.000000e+02	5.000000e+00	-1.637593e-17	
6.000000e-01	8.000000e-01	1.115427e+00	1.126693e-02	2.001197e+03	0.000000e+00	2.058111e+06	1.312854e+01	1.126693e+00	1.013250e+05	3.000000e+02	3.000000e+02	5.000000e+00	-1.637593e-17	
6.000000e-01	7.000000e-01	1.115427e+00	1.126693e-02	2.001197e+03	0.000000e+00	2.058111e+06	1.312854e+01	1.126693e+00	1.013250e+05	3.000000e+02	3.000000e+02	5.000000e+00	-2.456390e-17	
6.000000e-01	6.000000e-01	1.115427e+00	1.126693e-02	2.001197e+03	7.504229e-27	2.058111e+06	1.312854e+01	1.126693e+00	1.013250e+05	3.000000e+02	3.000000e+02	5.000000e+00	-1.637593e-17	
6.000000e-01	5.000000e-01	1.115427e+00	1.126693e-02	2.001197e+03	-1.828765e-15	2.058111e+06	1.312854e+01	1.126693e+00	1.013250e+05	3.000000e+02	3.000000e+02	5.000000e+00	-2.456390e-17	
6.000000e-01	4.000000e-01	1.115427e+00	1.126693e-02	2.001197e+03	-3.657531e-15	2.058111e+06	1.312854e+01	1.126693e+00	1.013250e+05	3.000000e+02	3.000000e+02	5.000000e+00	-3.275187e-17	
6.000000e-01	3.000000e-01	1.115427e+00	1.126693e-02	2.001197e+03	-1.828765e-15	2.058111e+06	1.312854e+01	1.126693e+00	1.013250e+05	3.000000e+02	3.000000e+02	5.000000e+00	-2.456390e-17	
6.000000e-01	2.000000e-01	1.115427e+00	1.126693e-02	2.001197e+03	-2.233798e-26	2.058111e+06	1.312854e+01	1.126693e+00	1.013250e+05	3.000000e+02	3.000000e+02	5.000000e+00	-5.731577e-17	
6.000000e-01	1.000000e-01	1.115427e+00	1.126693e-02	2.001197e+03	-3.200340e-15	2.058111e+06	1.312854e+01	1.126693e+00	1.013250e+05	3.000000e+02	3.000000e+02	5.000000e+00	-2.456390e-17	
7.000000e-01	9.000000e-01	1.115427e+00	1.126693e-02	2.001197e+03	0.000000e+00	2.058111e+06	1.312854e+01	1.126693e+00	1.013250e+05	3.000000e+02	3.000000e+02	5.000000e+00	-1.637593e-17	
7.000000e-01	8.000000e-01	1.115427e+00	1.126693e-02	2.001197e+03	0.000000e+00	2.058111e+06	1.312854e+01	1.126693e+00	1.013250e+05	3.000000e+02	3.000000e+02	5.000000e+00	-8.187967e-18	
7.000000e-01	7.000000e-01	1.115427e+00	1.126693e-02	2.001197e+03	0.000000e+00	2.058111e+06	1.312854e+01	1.126693e+00	1.013250e+05	3.000000e+02	3.000000e+02	5.000000e+00	-1.637593e-17	
7.000000e-01	6.000000e-01	1.115427e+00	1.126693e-02	2.001197e+03	5.986349e-27	2.058111e+06	1.312854e+01	1.126693e+00	1.013250e+05	3.000000e+02	3.000000e+02	5.000000e+00	-2.456390e-17	
7.000000e-01	5.000000e-01	1.115427e+00	1.126693e-02	2.001197e+03	-9.143827e-16	2.058111e+06	1.312854e+01	1.126693e+00	1.013250e+05	3.000000e+02	3.000000e+02	5.000000e+00	-1.637593e-17	
7.000000e-01	4.000000e-01	1.115427e+00	1.126693e-02	2.001197e+03	-1.828765e-15	2.058111e+06	1.312854e+01	1.126693e+00	1.013250e+05	3.000000e+02	3.000000e+02	5.000000e+00	-2.456390e-17	
7.000000e-01	3.000000e-01	1.115427e+00	1.126693e-02	2.001197e+03	-9.143827e-16	2.058111e+06	1.312854e+01	1.126693e+00	1.013250e+05	3.000000e+02	3.000000e+02	5.000000e+00	-2.456390e-17	
7.000000e-01	2.000000e-01	1.115427e+00	1.126693e-02	2.001197e+03	2.159160e-26	2.058111e+06	1.312854e+01	1.126693e+00	1.013250e+05	3.000000e+02	3.000000e+02	5.000000e+00	-2.456390e-17	
7.000000e-01	1.000000e-01	1.115427e+00	1.126693e-02	2.001197e+03	-4.800509e-15	2.058111e+06	1.312854e+01	1.126693e+00	1.013250e+05	3.000000e+02	3.000000e+02	5.000000e+00	-2.456390e-17	
8.000000e-01	9.000000e-01	1.115427e+00	1.126693e-02	2.001197e+03	0.000000e+00	2.058111e+06	1.312854e+01	1.126693e+00	1.013250e+05	3.000000e+02	3.000000e+02	5.000000e+00	-1.637593e-17	
8.000000e-01	8.000000e-01	1.115427e+00	1.126693e-02	2.001197e+03	0.000000e+00	2.058111e+06	1.312854e+01	1.126693e+00	1.013250e+05	3.000000e+02	3.000000e+02	5.000000e+00	-2.456390e-17	
8.000000e-01	7.000000e-01	1.115427e+00	1.126693e-02	2.001197e+03	0.000000e+00	2.058111e+06	1.312854e+01	1.126693e+00	1.013250e+05	3.000000e+02	3.000000e+02	5.000000e+00	-1.637593e-17	
8.000000e-01	6.000000e-01	1.115427e+00	1.126693e-02	2.001197e+03	0.000000e+00	2.058111e+06	1.312854e+01	1.126693e+00	1.013250e+05	3.000000e+02	3.000000e+02	5.000000e+00	-1.637593e-17	
8.000000e-01	5.000000e-01	1.115427e+00	1.126693e-02	2.001197e+03	0.000000e+00	2.058111e+06	1.312854e+01	1.126693e+00	1.013250e+05	3.000000e+02	3.000000e+02	5.000000e+00	-2.456390e-17	
8.000000e-01	4.000000e-01	1.115427e+00	1.126693e-02	2.001197e+03	6.687936e-32	2.058111e+06	1.312854e+01	1.126693e+00	1.013250e+05	3.000000e+02	3.000000e+02	5.000000e+00	-3.275187e-17	
8.000000e-01	3.000000e-01	1.115427e+00	1.126693e-02	2.001197e+03	-4.764653e-28	2.058111e+06	1.312854e+01	1.126693e+00	1.013250e+05	3.000000e+02	3.000000e+02	5.000000e+00	-2.456390e-17	
8.000000e-01	2.000000e-01	1.115427e+00	1.126693e-02	2.001197e+03	-6.350196e-28	2.058111e+06	1.312854e+01	1.126693e+00	1.013250e+05	3.000000e+02	3.000000e+02	5.000000e+00	-2.456390e-17	
8.000000e-01	1.000000e-01	1.115427e+00	1.126693e-02	2.001197e+03	-6.400679e-15	2.058111e+06	1.312854e+01	1.126693e+00	1.013250e+05	3.000000e+02	3.000000e+02	5.000000e+00	-1.637593e-17	
9.000000e-01	9.000000e-01	1.115427e+00	1.126693e-02	2.001197e+03	0.000000e+00	2.058111e+06	1.312854e+01	1.126693e+00	1.013250e+05	3.000000e+02	3.000000e+02	5.000000e+00	-1.637593e-17	
9.000000e-01	8.000000e-01	1.115427e+00	1.126693e-02	2.001197e+03	0.000000e+00	2.058111e+06	1.312854e+01	1.126693e+00	1.013250e+05	3.000000e+02	3.000000e+02	5.000000e+00	-2.456390e-17	
9.000000e-01	7.000000e-01	1.115427e+00	1.126693e-02	2.001197e+03	0.000000e+00	2.058111e+06	1.312854e+01	1.126693e+00	1.013250e+05	3.000000e+02	3.000000e+02	5.000000e+00	-1.637593e-17	
9.000000e-01	6.000000e-01	1.115427e+00	1.126693e-02	2.001197e+03	0.000000e+00	2.058111e+06	1.312854e+01	1.126693e+00	1.013250e+05	3.000000e+02	3.000000e+02	5.000000e+00	-1.637593e-17	
9.000000e-01	5.000000e-01	1.115427e+00	1.126693e-02	2.001197e+03	0.000000e+00	2.058111e+06	1.312854e+01	1.126693e+00	1.013250e+05	3.000000e+02	3.000000e+02	5.000000e+00	-2.456390e-17	
9.000000e-01	4.000000e-01	1.115427e+00	1.126693e-02	2.001197e+03	-4.204505e-27	2.058111e+06	1.312854e+01	1.126693e+00	1.013250e+05	3.000000e+02	3.000000e+02	5.000000e+00	-2.456390e-17	
9.000000e-01	3.000000e-01	1.115427e+00	1.126693e-02	2.001197e+03	3.011979e-16	2.058111e+06	1.312854e+01	1.126693e+00	1.013250e+05	3.000000e+02	3.000000e+02	5.000000e+00	-1.637593e-17	
9.000000e-01	2.000000e-01	1.115427e+00	1.126693e-02	2.001197e+03	6.023958e-16	2.058111e+06	1.312854e+01	1.126693e+00	1.013250e+05	3.000000e+02	3.000000e+02	5.000000e+00	-2.456390e-17	
9.000000e-01	1.000000e-01	1.115427e+00	1.126693e-02	2.001197e+03	-5.400032e-15	2.058111e+06	1.312854e+01	1.126693e+00	1.013250e+05	3.000000e+02	3.000000e+02	5.000000e+00	-1.637593e-17	
2	13	41	14
13	12	42	41
12	11	43	42
11	10	44	43
10	9	45	44
9	8	46	45
8	7	47	46
7	6	48	47
6	5	49	48
5	1	40	49
14	41	50	15
41	42	51	50
42	43	52	51
43	44	53	52
44	45	54	53
45	46	55	54
46	47	56	55
47	48	57	56
48	49	58	57
49	40	39	58
15	50	59	16
50	51	60	59
51	52	61	60
52	53	62	61
53	54	63	62
54	55	64	63
55	56	65	64
56	57	66	65
57	58	67	66
58	39	38	67
16	59	68	17
59	60	69	68
60	61	70	69
61	62	71	70
62	63	72	71
63	64	73	72
64	65	74	73
65	66	75	74
66	67	76	75
67	38	37	76
17	68	77	18
68	69	78	77
69	70	79	78
70	71	80	79
71	72	81	80
72	73	82	81
73	74	83	82
74	75	84	83
75	76	85	84
76	37	36	85
18	77	86	19
77	78	87	86
78	79	88	87
79	80	89	88
80	81	90	89
81	82	91	90
82	83	92	91
83	84	93	92
84	85	94	93
85	36	35	94
19	86	95	20
86	87	96	95
87	88	97	96
88	89	98	97
89	90	99	98
90	91	100	99
91	92	101	100
92	93	102	101
93	94	103	102
94	35	34	103
20	95	104	21
95	96	105	104
96	97	106	105
97	98	107	106
98	99	108	107
99	100	109	108
100	101	110	109
101	102	111	110
102	103	112	111
103	34	33	112
21	104	113	22
104	105	114	113
105	106	115	114
106	107	116	115
107	108	117	116
108	109	118	117
109	110	119	118
110	111	120	119
111	112	121	120
112	33	32	121
22	113	23	4
113	114	24	23
114	115	25	24
115	116	26	25
116	117	27	26
117	118	28	27
118	119	29	28
119	120	30	29
120	121	31	30
121	32	3	31
