TITLE = "SU2 Simulation"
VARIABLES = "Iteration","CL","CD","CSF","CMx","CMy","CMz","CFx","CFy","CFz","CL/CD","AoA","Custom_ObjFunc","Res_Flow[0]","Res_Flow[1]","Res_Flow[2]","Res_Flow[3]","Res_Flow[4]","Linear_Solver_Iterations","CFL_Number","Time(min)"
ZONE T= "Convergence history"
           0, 0.00000000e+00, 0.00000000e+00, 0.00000000e+00, 0.00000000e+00, 0.00000000e+00, 0.00000000e+00, 0.00000000e+00, 0.00000000e+00, 0.00000000e+00, 0.00000000e+00, 0.00000000e+00, 0.00000000e+00, 8.96850333e-01, -1.09878486e+00, 4.15069928e+00, -1.21805073e+01, 7.18374968e+00, 1.96762590e+00, 0.00000000e+00, 0.0000000000, 1.0000000000, 0.0000442346
           1, 0.00000000e+00, 0.00000000e+00, 0.00000000e+00, 0.00000000e+00, 0.00000000e+00, 0.00000000e+00, 0.00000000e+00, 0.00000000e+00, 0.00000000e+00, 0.00000000e+00, 0.00000000e+00, 0.00000000e+00, 8.91512234e-01, -1.10412296e+00, 4.14348909e+00, 2.48454578e+00, 7.17808282e+00, 1.96228783e+00, 0.00000000e+00, 0.0000000000, 1.0000000000, 0.0000863512
           2, 0.00000000e+00, 0.00000000e+00, 0.00000000e+00, 0.00000000e+00, 0.00000000e+00, 0.00000000e+00, 0.00000000e+00, 0.00000000e+00, 0.00000000e+00, 0.00000000e+00, 0.00000000e+00, 0.00000000e+00, 8.85255252e-01, -1.11037994e+00, 4.13522513e+00, 2.78521057e+00, 7.17137058e+00, 1.95603092e+00, 0.00000000e+00, 0.0000000000, 1.0000000000, 0.0001264334
           3, 0.00000000e+00, 0.00000000e+00, 0.00000000e+00, 0.00000000e+00, 0.00000000e+00, 0.00000000e+00, 0.00000000e+00, 0.00000000e+00, 0.00000000e+00, 0.00000000e+00, 0.00000000e+00, 0.00000000e+00, 8.78065064e-01, -1.11757013e+00, 4.12590946e+00, 2.95957560e+00, 7.16361344e+00, 1.94884090e+00, 0.00000000e+00, 0.0000000000, 1.0000000000, 0.0001669486
           4, 0.00000000e+00, 0.00000000e+00, 0.00000000e+00, 0.00000000e+00, 0.00000000e+00, 0.00000000e+00, 0.00000000e+00, 0.00000000e+00, 0.00000000e+00, 0.00000000e+00, 0.00000000e+00, 0.00000000e+00, 8.69961165e-01, -1.12567403e+00, 4.11558875e+00, 3.08109673e+00, 7.15485636e+00, 1.94073738e+00, 0.00000000e+00, 0.0000000000, 1.0000000000, 0.0002077182
           5, 0.00000000e+00, 0.00000000e+00, 0.00000000e+00, 0.00000000e+00, 0.00000000e+00, 0.00000000e+00, 0.00000000e+00, 0.00000000e+00, 0.00000000e+00, 0.00000000e+00, 0.00000000e+00, 0.00000000e+00, 8.60941574e-01, -1.13469362e+00, 4.10428671e+00, 3.17278725e+00, 7.14511970e+00, 1.93171852e+00, 0.00000000e+00, 0.0000000000, 1.0000000000, 0.0002481659
           6, 0.00000000e+00, 0.00000000e+00, 0.00000000e+00, 0.00000000e+00, 0.00000000e+00, 0.00000000e+00, 0.00000000e+00, 0.00000000e+00, 0.00000000e+00, 0.00000000e+00, 0.00000000e+00, 0.00000000e+00, 8.50970694e-01, -1.14466450e+00, 4.09198836e+00, 3.24494372e+00, 7.13438474e+00, 1.92174897e+00, 0.00000000e+00, 0.0000000000, 1.0000000000, 0.0002881328
           7, 0.00000000e+00, 0.00000000e+00, 0.00000000e+00, 0.00000000e+00, 0.00000000e+00, 0.00000000e+00, 0.00000000e+00, 0.00000000e+00, 0.00000000e+00, 0.00000000e+00, 0.00000000e+00, 0.00000000e+00, 8.39983774e-01, -1.15565142e+00, 4.07864312e+00, 3.30311952e+00, 7.12259872e+00, 1.91076436e+00, 0.00000000e+00, 0.0000000000, 1.0000000000, 0.0003286322
           8, 0.00000000e+00, 0.00000000e+00, 0.00000000e+00, 0.00000000e+00, 0.00000000e+00, 0.00000000e+00, 0.00000000e+00, 0.00000000e+00, 0.00000000e+00, 0.00000000e+00, 0.00000000e+00, 0.00000000e+00, 8.27895308e-01, -1.16773989e+00, 4.06417263e+00, 3.35069034e+00, 7.10968404e+00, 1.89867968e+00, 0.00000000e+00, 0.0000000000, 1.0000000000, 0.0003692826
           9, 0.00000000e+00, 0.00000000e+00, 0.00000000e+00, 0.00000000e+00, 0.00000000e+00, 0.00000000e+00, 0.00000000e+00, 0.00000000e+00, 0.00000000e+00, 0.00000000e+00, 0.00000000e+00, 0.00000000e+00, 8.14608567e-01, -1.18102663e+00, 4.04848001e+00, 3.38988925e+00, 7.09554834e+00, 1.88539887e+00, 0.00000000e+00, 0.0000000000, 1.0000000000, 0.0004095833
          10, 0.00000000e+00, 0.00000000e+00, 0.00000000e+00, 0.00000000e+00, 0.00000000e+00, 0.00000000e+00, 0.00000000e+00, 0.00000000e+00, 0.00000000e+00, 0.00000000e+00, 0.00000000e+00, 0.00000000e+00, 8.00025735e-01, -1.19560946e+00, 4.03145987e+00, 3.42228970e+00, 7.08009480e+00, 1.87082491e+00, 0.00000000e+00, 0.0000000000, 1.0000000000, 0.0004497846
          11, 0.00000000e+00, 0.00000000e+00, 0.00000000e+00, 0.00000000e+00, 0.00000000e+00, 0.00000000e+00, 0.00000000e+00, 0.00000000e+00, 0.00000000e+00, 0.00000000e+00, 0.00000000e+00, 0.00000000e+00, 7.84058945e-01, -1.21157625e+00, 4.01300970e+00, 3.44905515e+00, 7.06323310e+00, 1.85487088e+00, 0.00000000e+00, 0.0000000000, 1.0000000000, 0.0004905502
          12, 0.00000000e+00, 0.00000000e+00, 0.00000000e+00, 0.00000000e+00, 0.00000000e+00, 0.00000000e+00, 0.00000000e+00, 0.00000000e+00, 0.00000000e+00, 0.00000000e+00, 0.00000000e+00, 0.00000000e+00, 7.66642887e-01, -1.22899231e+00, 3.99304317e+00, 3.47107862e+00, 7.04489195e+00, 1.83747244e+00, 0.00000000e+00, 0.0000000000, 1.0000000000, 0.0005311847
          13, 0.00000000e+00, 0.00000000e+00, 0.00000000e+00, 0.00000000e+00, 0.00000000e+00, 0.00000000e+00, 0.00000000e+00, 0.00000000e+00, 0.00000000e+00, 0.00000000e+00, 0.00000000e+00, 0.00000000e+00, 7.47749781e-01, -1.24788541e+00, 3.97150650e+00, 3.48906572e+00, 7.02503393e+00, 1.81860282e+00, 0.00000000e+00, 0.0000000000, 1.0000000000, 0.0005712986
          14, 0.00000000e+00, 0.00000000e+00, 0.00000000e+00, 0.00000000e+00, 0.00000000e+00, 0.00000000e+00, 0.00000000e+00, 0.00000000e+00, 0.00000000e+00, 0.00000000e+00, 0.00000000e+00, 0.00000000e+00, 7.27407708e-01, -1.26822749e+00, 3.94839937e+00, 3.50358670e+00, 7.00367415e+00, 1.79829090e+00, 0.00000000e+00, 0.0000000000, 1.0000000000, 0.0006118337
          15, 0.00000000e+00, 0.00000000e+00, 0.00000000e+00, 0.00000000e+00, 0.00000000e+00, 0.00000000e+00, 0.00000000e+00, 0.00000000e+00, 0.00000000e+00, 0.00000000e+00, 0.00000000e+00, 0.00000000e+00, 7.05723330e-01, -1.28991186e+00, 3.92380189e+00, 3.51511067e+00, 6.98090389e+00, 1.77664386e+00, 0.00000000e+00, 0.0000000000, 1.0000000000, 0.0006525993
          16, 0.00000000e+00, 0.00000000e+00, 0.00000000e+00, 0.00000000e+00, 0.00000000e+00, 0.00000000e+00, 0.00000000e+00, 0.00000000e+00, 0.00000000e+00, 0.00000000e+00, 0.00000000e+00, 0.00000000e+00, 6.82910214e-01, -1.31272498e+00, 3.89791010e+00, 3.52402932e+00, 6.95692104e+00, 1.75387518e+00, 0.00000000e+00, 0.0000000000, 1.0000000000, 0.0006935676
          17, 0.00000000e+00, 0.00000000e+00, 0.00000000e+00, 0.00000000e+00, 0.00000000e+00, 0.00000000e+00, 0.00000000e+00, 0.00000000e+00, 0.00000000e+00, 0.00000000e+00, 0.00000000e+00, 0.00000000e+00, 6.59323164e-01, -1.33631203e+00, 3.87108169e+00, 3.53067444e+00, 6.93206851e+00, 1.73033863e+00, 0.00000000e+00, 0.0000000000, 1.0000000000, 0.0007338683
          18, 0.00000000e+00, 0.00000000e+00, 0.00000000e+00, 0.00000000e+00, 0.00000000e+00, 0.00000000e+00, 0.00000000e+00, 0.00000000e+00, 0.00000000e+00, 0.00000000e+00, 0.00000000e+00, 0.00000000e+00, 6.35495915e-01, -1.36013928e+00, 3.84389038e+00, 3.53533128e+00, 6.90687874e+00, 1.70656563e+00, 0.00000000e+00, 0.0000000000, 1.0000000000, 0.0007747173
          19, 0.00000000e+00, 0.00000000e+00, 0.00000000e+00, 0.00000000e+00, 0.00000000e+00, 0.00000000e+00, 0.00000000e+00, 0.00000000e+00, 0.00000000e+00, 0.00000000e+00, 0.00000000e+00, 0.00000000e+00, 6.12166685e-01, -1.38346851e+00, 3.81717326e+00, 3.53824052e+00, 6.88210887e+00, 1.68329034e+00, 0.00000000e+00, 0.0000000000, 1.0000000000, 0.0008144816
          20, 0.00000000e+00, 0.00000000e+00, 0.00000000e+00, 0.00000000e+00, 0.00000000e+00, 0.00000000e+00, 0.00000000e+00, 0.00000000e+00, 0.00000000e+00, 0.00000000e+00, 0.00000000e+00, 0.00000000e+00, 5.90208665e-01, -1.40542653e+00, 3.79198295e+00, 3.53953045e+00, 6.85867939e+00, 1.66138019e+00, 0.00000000e+00, 0.0000000000, 1.0000000000, 0.0008541981
          21, 0.00000000e+00, 0.00000000e+00, 0.00000000e+00, 0.00000000e+00, 0.00000000e+00, 0.00000000e+00, 0.00000000e+00, 0.00000000e+00, 0.00000000e+00, 0.00000000e+00, 0.00000000e+00, 0.00000000e+00, 5.70566703e-01, -1.42506849e+00, 3.76952352e+00, 3.53924612e+00, 6.83761736e+00, 1.64177315e+00, 0.00000000e+00, 0.0000000000, 1.0000000000, 0.0008943836
          22, 0.00000000e+00, 0.00000000e+00, 0.00000000e+00, 0.00000000e+00, 0.00000000e+00, 0.00000000e+00, 0.00000000e+00, 0.00000000e+00, 0.00000000e+00, 0.00000000e+00, 0.00000000e+00, 0.00000000e+00, 5.54214649e-01, -1.44142055e+00, 3.75107380e+00, 3.53744066e+00, 6.82001766e+00, 1.62543621e+00, 0.00000000e+00, 0.0000000000, 1.0000000000, 0.0009348313
          23, 0.00000000e+00, 0.00000000e+00, 0.00000000e+00, 0.00000000e+00, 0.00000000e+00, 0.00000000e+00, 0.00000000e+00, 0.00000000e+00, 0.00000000e+00, 0.00000000e+00, 0.00000000e+00, 0.00000000e+00, 5.42000848e-01, -1.45363435e+00, 3.73775999e+00, 3.53417247e+00, 6.80686847e+00, 1.61321289e+00, 0.00000000e+00, 0.0000000000, 1.0000000000, 0.0009752671
          24, 0.00000000e+00, 0.00000000e+00, 0.00000000e+00, 0.00000000e+00, 0.00000000e+00, 0.00000000e+00, 0.00000000e+00, 0.00000000e+00, 0.00000000e+00, 0.00000000e+00, 0.00000000e+00, 0.00000000e+00, 5.34480052e-01, -1.46115514e+00, 3.73029433e+00, 3.52950391e+00, 6.79884658e+00, 1.60565710e+00, 0.00000000e+00, 0.0000000000, 1.0000000000, 0.0010160645
          25, 0.00000000e+00, 0.00000000e+00, 0.00000000e+00, 0.00000000e+00, 0.00000000e+00, 0.00000000e+00, 0.00000000e+00, 0.00000000e+00, 0.00000000e+00, 0.00000000e+00, 0.00000000e+00, 0.00000000e+00, 5.31797977e-01, -1.46383722e+00, 3.72879248e+00, 3.52350938e+00, 6.79616308e+00, 1.60291850e+00, 0.00000000e+00, 0.0000000000, 1.0000000000, 0.0010567506
          26, 0.00000000e+00, 0.00000000e+00, 0.00000000e+00, 0.00000000e+00, 0.00000000e+00, 0.00000000e+00, 0.00000000e+00, 0.00000000e+00, 0.00000000e+00, 0.00000000e+00, 0.00000000e+00, 0.00000000e+00, 5.33666037e-01, -1.46196916e+00, 3.73275072e+00, 3.51627984e+00, 6.79851637e+00, 1.60471641e+00, 0.00000000e+00, 0.0000000000, 1.0000000000, 0.0010977467
          27, 0.00000000e+00, 0.00000000e+00, 0.00000000e+00, 0.00000000e+00, 0.00000000e+00, 0.00000000e+00, 0.00000000e+00, 0.00000000e+00, 0.00000000e+00, 0.00000000e+00, 0.00000000e+00, 0.00000000e+00, 5.39437309e-01, -1.45619789e+00, 3.74119479e+00, 3.50792422e+00, 6.80517539e+00, 1.61041348e+00, 0.00000000e+00, 0.0000000000, 1.0000000000, 0.0011385798
          28, 0.00000000e+00, 0.00000000e+00, 0.00000000e+00, 0.00000000e+00, 0.00000000e+00, 0.00000000e+00, 0.00000000e+00, 0.00000000e+00, 0.00000000e+00, 0.00000000e+00, 0.00000000e+00, 0.00000000e+00, 5.48238761e-01, -1.44739643e+00, 3.75291056e+00, 3.49856370e+00, 6.81514095e+00, 1.61914541e+00, 0.00000000e+00, 0.0000000000, 1.0000000000, 0.0011789481
          29, 0.00000000e+00, 0.00000000e+00, 0.00000000e+00, 0.00000000e+00, 0.00000000e+00, 0.00000000e+00, 0.00000000e+00, 0.00000000e+00, 0.00000000e+00, 0.00000000e+00, 0.00000000e+00, 0.00000000e+00, 5.59106374e-01, -1.43652882e+00, 3.76665324e+00, 3.48833115e+00, 6.82731413e+00, 1.62995454e+00, 0.00000000e+00, 0.0000000000, 1.0000000000, 0.0012195985
          30, 0.00000000e+00, 0.00000000e+00, 0.00000000e+00, 0.00000000e+00, 0.00000000e+00, 0.00000000e+00, 0.00000000e+00, 0.00000000e+00, 0.00000000e+00, 0.00000000e+00, 0.00000000e+00, 0.00000000e+00, 5.71137179e-01, -1.42449802e+00, 3.78133161e+00, 3.47737763e+00, 6.84067799e+00, 1.64194122e+00, 0.00000000e+00, 0.0000000000, 1.0000000000, 0.0012600462
          31, 0.00000000e+00, 0.00000000e+00, 0.00000000e+00, 0.00000000e+00, 0.00000000e+00, 0.00000000e+00, 0.00000000e+00, 0.00000000e+00, 0.00000000e+00, 0.00000000e+00, 0.00000000e+00, 0.00000000e+00, 5.83566269e-01, -1.41206893e+00, 3.79608053e+00, 3.46584062e+00, 6.85438593e+00, 1.65434128e+00, 0.00000000e+00, 0.0000000000, 1.0000000000, 0.0013000290
          32, 0.00000000e+00, 0.00000000e+00, 0.00000000e+00, 0.00000000e+00, 0.00000000e+00, 0.00000000e+00, 0.00000000e+00, 0.00000000e+00, 0.00000000e+00, 0.00000000e+00, 0.00000000e+00, 0.00000000e+00, 5.95780971e-01, -1.39985422e+00, 3.81025122e+00, 3.45386283e+00, 6.86777228e+00, 1.66654115e+00, 0.00000000e+00, 0.0000000000, 1.0000000000, 0.0013409456
          33, 0.00000000e+00, 0.00000000e+00, 0.00000000e+00, 0.00000000e+00, 0.00000000e+00, 0.00000000e+00, 0.00000000e+00, 0.00000000e+00, 0.00000000e+00, 0.00000000e+00, 0.00000000e+00, 0.00000000e+00, 6.07308289e-01, -1.38832691e+00, 3.82337490e+00, 3.44158453e+00, 6.88033336e+00, 1.67806604e+00, 0.00000000e+00, 0.0000000000, 1.0000000000, 0.0013816794
          34, 0.00000000e+00, 0.00000000e+00, 0.00000000e+00, 0.00000000e+00, 0.00000000e+00, 0.00000000e+00, 0.00000000e+00, 0.00000000e+00, 0.00000000e+00, 0.00000000e+00, 0.00000000e+00, 0.00000000e+00, 6.17789847e-01, -1.37784535e+00, 3.83511884e+00, 3.42913609e+00, 6.89169522e+00, 1.68855545e+00, 0.00000000e+00, 0.0000000000, 1.0000000000, 0.0014224291
          35, 0.00000000e+00, 0.00000000e+00, 0.00000000e+00, 0.00000000e+00, 0.00000000e+00, 0.00000000e+00, 0.00000000e+00, 0.00000000e+00, 0.00000000e+00, 0.00000000e+00, 0.00000000e+00, 0.00000000e+00, 6.26954276e-01, -1.36868092e+00, 3.84524619e+00, 3.41663069e+00, 6.90158013e+00, 1.69773589e+00, 0.00000000e+00, 0.0000000000, 1.0000000000, 0.0014626622
          36, 0.00000000e+00, 0.00000000e+00, 0.00000000e+00, 0.00000000e+00, 0.00000000e+00, 0.00000000e+00, 0.00000000e+00, 0.00000000e+00, 0.00000000e+00, 0.00000000e+00, 0.00000000e+00, 0.00000000e+00, 6.34591201e-01, -1.36104399e+00, 3.85358244e+00, 3.40415593e+00, 6.90977604e+00, 1.70539512e+00, 0.00000000e+00, 0.0000000000, 1.0000000000, 0.0015022119
          37, 0.00000000e+00, 0.00000000e+00, 0.00000000e+00, 0.00000000e+00, 0.00000000e+00, 0.00000000e+00, 0.00000000e+00, 0.00000000e+00, 0.00000000e+00, 0.00000000e+00, 0.00000000e+00, 0.00000000e+00, 6.40531410e-01, -1.35510378e+00, 3.85999148e+00, 3.39176872e+00, 6.91611389e+00, 1.71136233e+00, 0.00000000e+00, 0.0000000000, 1.0000000000, 0.0015423139
          38, 0.00000000e+00, 0.00000000e+00, 0.00000000e+00, 0.00000000e+00, 0.00000000e+00, 0.00000000e+00, 0.00000000e+00, 0.00000000e+00, 0.00000000e+00, 0.00000000e+00, 0.00000000e+00, 0.00000000e+00, 6.44630746e-01, -1.35100445e+00, 3.86435758e+00, 3.37949039e+00, 6.92044949e+00, 1.71549207e+00, 0.00000000e+00, 0.0000000000, 1.0000000000, 0.0015835285
          39, 0.00000000e+00, 0.00000000e+00, 0.00000000e+00, 0.00000000e+00, 0.00000000e+00, 0.00000000e+00, 0.00000000e+00, 0.00000000e+00, 0.00000000e+00, 0.00000000e+00, 0.00000000e+00, 0.00000000e+00, 6.46758342e-01, -1.34887685e+00, 3.86657288e+00, 3.36730435e+00, 6.92265045e+00, 1.71765249e+00, 0.00000000e+00, 0.0000000000, 1.0000000000, 0.0016241630
          40, 0.00000000e+00, 0.00000000e+00, 0.00000000e+00, 0.00000000e+00, 0.00000000e+00, 0.00000000e+00, 0.00000000e+00, 0.00000000e+00, 0.00000000e+00, 0.00000000e+00, 0.00000000e+00, 0.00000000e+00, 6.46788181e-01, -1.34884701e+00, 3.86652893e+00, 3.35515608e+00, 6.92258697e+00, 1.71771686e+00, 0.00000000e+00, 0.0000000000, 1.0000000000, 0.0016647617
          41, 0.00000000e+00, 0.00000000e+00, 0.00000000e+00, 0.00000000e+00, 0.00000000e+00, 0.00000000e+00, 0.00000000e+00, 0.00000000e+00, 0.00000000e+00, 0.00000000e+00, 0.00000000e+00, 0.00000000e+00, 6.44997057e-01, -1.35063814e+00, 3.86452778e+00, 3.34335562e+00, 6.92056146e+00, 1.71596228e+00, 0.00000000e+00, 0.0000000000, 1.0000000000, 0.0017048120
          42, 0.00000000e+00, 0.00000000e+00, 0.00000000e+00, 0.00000000e+00, 0.00000000e+00, 0.00000000e+00, 0.00000000e+00, 0.00000000e+00, 0.00000000e+00, 0.00000000e+00, 0.00000000e+00, 0.00000000e+00, 6.42131257e-01, -1.35350394e+00, 3.86135019e+00, 3.33278974e+00, 6.91736908e+00, 1.71313680e+00, 0.00000000e+00, 0.0000000000, 1.0000000000, 0.0017450651
          43, 0.00000000e+00, 0.00000000e+00, 0.00000000e+00, 0.00000000e+00, 0.00000000e+00, 0.00000000e+00, 0.00000000e+00, 0.00000000e+00, 0.00000000e+00, 0.00000000e+00, 0.00000000e+00, 0.00000000e+00, 6.36350612e-01, -1.35928458e+00, 3.85509698e+00, 3.32162421e+00, 6.91099276e+00, 1.70739673e+00, 0.00000000e+00, 0.0000000000, 1.0000000000, 0.0017852465
          44, 0.00000000e+00, 0.00000000e+00, 0.00000000e+00, 0.00000000e+00, 0.00000000e+00, 0.00000000e+00, 0.00000000e+00, 0.00000000e+00, 0.00000000e+00, 0.00000000e+00, 0.00000000e+00, 0.00000000e+00, 6.27234791e-01, -1.36840040e+00, 3.84534206e+00, 3.30930381e+00, 6.90098456e+00, 1.69832082e+00, 0.00000000e+00, 0.0000000000, 1.0000000000, 0.0018258969
          45, 0.00000000e+00, 0.00000000e+00, 0.00000000e+00, 0.00000000e+00, 0.00000000e+00, 0.00000000e+00, 0.00000000e+00, 0.00000000e+00, 0.00000000e+00, 0.00000000e+00, 0.00000000e+00, 0.00000000e+00, 6.14475188e-01, -1.38116001e+00, 3.83177640e+00, 3.29532330e+00, 6.88703133e+00, 1.68559972e+00, 0.00000000e+00, 0.0000000000, 1.0000000000, 0.0018676122
          46, 0.00000000e+00, 0.00000000e+00, 0.00000000e+00, 0.00000000e+00, 0.00000000e+00, 0.00000000e+00, 0.00000000e+00, 0.00000000e+00, 0.00000000e+00, 0.00000000e+00, 0.00000000e+00, 0.00000000e+00, 5.98460461e-01, -1.39717473e+00, 3.81479903e+00, 3.28001606e+00, 6.86955259e+00, 1.66962239e+00, 0.00000000e+00, 0.0000000000, 1.0000000000, 0.0019082149
          47, 0.00000000e+00, 0.00000000e+00, 0.00000000e+00, 0.00000000e+00, 0.00000000e+00, 0.00000000e+00, 0.00000000e+00, 0.00000000e+00, 0.00000000e+00, 0.00000000e+00, 0.00000000e+00, 0.00000000e+00, 5.79056621e-01, -1.41657857e+00, 3.79426224e+00, 3.26311420e+00, 6.84839708e+00, 1.65025447e+00, 0.00000000e+00, 0.0000000000, 1.0000000000, 0.0019477487
          48, 0.00000000e+00, 0.00000000e+00, 0.00000000e+00, 0.00000000e+00, 0.00000000e+00, 0.00000000e+00, 0.00000000e+00, 0.00000000e+00, 0.00000000e+00, 0.00000000e+00, 0.00000000e+00, 0.00000000e+00, 5.56390919e-01, -1.43924428e+00, 3.77028263e+00, 3.24467551e+00, 6.82368742e+00, 1.62762298e+00, 0.00000000e+00, 0.0000000000, 1.0000000000, 0.0019885818
          49, 0.00000000e+00, 0.00000000e+00, 0.00000000e+00, 0.00000000e+00, 0.00000000e+00, 0.00000000e+00, 0.00000000e+00, 0.00000000e+00, 0.00000000e+00, 0.00000000e+00, 0.00000000e+00, 0.00000000e+00, 5.30648950e-01, -1.46498625e+00, 3.74303647e+00, 3.22484129e+00, 6.79560502e+00, 1.60191326e+00, 0.00000000e+00, 0.0000000000, 1.0000000000, 0.0020292640
          50, 0.00000000e+00, 0.00000000e+00, 0.00000000e+00, 0.00000000e+00, 0.00000000e+00, 0.00000000e+00, 0.00000000e+00, 0.00000000e+00, 0.00000000e+00, 0.00000000e+00, 0.00000000e+00, 0.00000000e+00, 5.02027035e-01, -1.49360816e+00, 3.71271126e+00, 3.20376029e+00, 6.76433919e+00, 1.57332122e+00, 0.00000000e+00, 0.0000000000, 1.0000000000, 0.0020698468
          51, 0.00000000e+00, 0.00000000e+00, 0.00000000e+00, 0.00000000e+00, 0.00000000e+00, 0.00000000e+00, 0.00000000e+00, 0.00000000e+00, 0.00000000e+00, 0.00000000e+00, 0.00000000e+00, 0.00000000e+00, 4.70834516e-01, -1.52480068e+00, 3.67962060e+00, 3.18175257e+00, 6.73019149e+00, 1.54215601e+00, 0.00000000e+00, 0.0000000000, 1.0000000000, 0.0020933429
          52, 0.00000000e+00, 0.00000000e+00, 0.00000000e+00, 0.00000000e+00, 0.00000000e+00, 0.00000000e+00, 0.00000000e+00, 0.00000000e+00, 0.00000000e+00, 0.00000000e+00, 0.00000000e+00, 0.00000000e+00, 4.36931724e-01, -1.55870347e+00, 3.64364401e+00, 3.15906863e+00, 6.69289589e+00, 1.50827949e+00, 0.00000000e+00, 0.0000000000, 1.0000000000, 0.0021165768
          53, 0.00000000e+00, 0.00000000e+00, 0.00000000e+00, 0.00000000e+00, 0.00000000e+00, 0.00000000e+00, 0.00000000e+00, 0.00000000e+00, 0.00000000e+00, 0.00000000e+00, 0.00000000e+00, 0.00000000e+00, 4.00163631e-01, -1.59547156e+00, 3.60461293e+00, 3.13499014e+00, 6.65228452e+00, 1.47153254e+00, 0.00000000e+00, 0.0000000000, 1.0000000000, 0.0021402955
          54, 0.00000000e+00, 0.00000000e+00, 0.00000000e+00, 0.00000000e+00, 0.00000000e+00, 0.00000000e+00, 0.00000000e+00, 0.00000000e+00, 0.00000000e+00, 0.00000000e+00, 0.00000000e+00, 0.00000000e+00, 3.60739139e-01, -1.63489606e+00, 3.56278833e+00, 3.10925584e+00, 6.60863424e+00, 1.43212052e+00, 0.00000000e+00, 0.0000000000, 1.0000000000, 0.0021635930
          55, 0.00000000e+00, 0.00000000e+00, 0.00000000e+00, 0.00000000e+00, 0.00000000e+00, 0.00000000e+00, 0.00000000e+00, 0.00000000e+00, 0.00000000e+00, 0.00000000e+00, 0.00000000e+00, 0.00000000e+00, 3.19264184e-01, -1.67637101e+00, 3.51887677e+00, 3.08180092e+00, 6.56275412e+00, 1.39064516e+00, 0.00000000e+00, 0.0000000000, 1.0000000000, 0.0021872282
          56, 0.00000000e+00, 0.00000000e+00, 0.00000000e+00, 0.00000000e+00, 0.00000000e+00, 0.00000000e+00, 0.00000000e+00, 0.00000000e+00, 0.00000000e+00, 0.00000000e+00, 0.00000000e+00, 0.00000000e+00, 2.76506554e-01, -1.71912864e+00, 3.47378850e+00, 3.05274728e+00, 6.51566574e+00, 1.34787103e+00, 0.00000000e+00, 0.0000000000, 1.0000000000, 0.0022104780
          57, 0.00000000e+00, 0.00000000e+00, 0.00000000e+00, 0.00000000e+00, 0.00000000e+00, 0.00000000e+00, 0.00000000e+00, 0.00000000e+00, 0.00000000e+00, 0.00000000e+00, 0.00000000e+00, 0.00000000e+00, 2.33423919e-01, -1.76221128e+00, 3.42868073e+00, 3.02221102e+00, 6.46869497e+00, 1.30475333e+00, 0.00000000e+00, 0.0000000000, 1.0000000000, 0.0022340616
          58, 0.00000000e+00, 0.00000000e+00, 0.00000000e+00, 0.00000000e+00, 0.00000000e+00, 0.00000000e+00, 0.00000000e+00, 0.00000000e+00, 0.00000000e+00, 0.00000000e+00, 0.00000000e+00, 0.00000000e+00, 1.91126269e-01, -1.80450893e+00, 3.38489647e+00, 2.99034245e+00, 6.42340587e+00, 1.26240139e+00, 0.00000000e+00, 0.0000000000, 1.0000000000, 0.0022571127
          59, 0.00000000e+00, 0.00000000e+00, 0.00000000e+00, 0.00000000e+00, 0.00000000e+00, 0.00000000e+00, 0.00000000e+00, 0.00000000e+00, 0.00000000e+00, 0.00000000e+00, 0.00000000e+00, 0.00000000e+00, 1.50740090e-01, -1.84489510e+00, 3.34377855e+00, 2.95729243e+00, 6.38136722e+00, 1.22194396e+00, 0.00000000e+00, 0.0000000000, 1.0000000000, 0.0022803783
          60, 0.00000000e+00, 0.00000000e+00, 0.00000000e+00, 0.00000000e+00, 0.00000000e+00, 0.00000000e+00, 0.00000000e+00, 0.00000000e+00, 0.00000000e+00, 0.00000000e+00, 0.00000000e+00, 0.00000000e+00, 1.13222331e-01, -1.88241286e+00, 3.30640869e+00, 2.92319938e+00, 6.34381385e+00, 1.18434371e+00, 0.00000000e+00, 0.0000000000, 1.0000000000, 0.0023045262
          61, 0.00000000e+00, 0.00000000e+00, 0.00000000e+00, 0.00000000e+00, 0.00000000e+00, 0.00000000e+00, 0.00000000e+00, 0.00000000e+00, 0.00000000e+00, 0.00000000e+00, 0.00000000e+00, 0.00000000e+00, 7.91628843e-02, -1.91647231e+00, 3.27334565e+00, 2.88817457e+00, 6.31131002e+00, 1.15019896e+00, 0.00000000e+00, 0.0000000000, 1.0000000000, 0.0023282766
          62, 0.00000000e+00, 0.00000000e+00, 0.00000000e+00, 0.00000000e+00, 0.00000000e+00, 0.00000000e+00, 0.00000000e+00, 0.00000000e+00, 0.00000000e+00, 0.00000000e+00, 0.00000000e+00, 0.00000000e+00, 4.86807228e-02, -1.94695447e+00, 3.24450864e+00, 2.85233151e+00, 6.28362040e+00, 1.11963781e+00, 0.00000000e+00, 0.0000000000, 1.0000000000, 0.0023510933
          63, 0.00000000e+00, 0.00000000e+00, 0.00000000e+00, 0.00000000e+00, 0.00000000e+00, 0.00000000e+00, 0.00000000e+00, 0.00000000e+00, 0.00000000e+00, 0.00000000e+00, 0.00000000e+00, 0.00000000e+00, 2.14227853e-02, -1.97421241e+00, 3.21923552e+00, 2.81577698e+00, 6.25982242e+00, 1.09231453e+00, 0.00000000e+00, 0.0000000000, 1.0000000000, 0.0023747285
          64, 0.00000000e+00, 0.00000000e+00, 0.00000000e+00, 0.00000000e+00, 0.00000000e+00, 0.00000000e+00, 0.00000000e+00, 0.00000000e+00, 0.00000000e+00, 0.00000000e+00, 0.00000000e+00, 0.00000000e+00, -3.31155314e-03, -1.99894675e+00, 3.19650069e+00, 2.77861437e+00, 6.23861493e+00, 1.06753252e+00, 0.00000000e+00, 0.0000000000, 1.0000000000, 0.0023980618
          65, 0.00000000e+00, 0.00000000e+00, 0.00000000e+00, 0.00000000e+00, 0.00000000e+00, 0.00000000e+00, 0.00000000e+00, 0.00000000e+00, 0.00000000e+00, 0.00000000e+00, 0.00000000e+00, 0.00000000e+00, -2.63857481e-02, -2.02202094e+00, 3.17517669e+00, 2.74095080e+00, 6.21865085e+00, 1.04442888e+00, 0.00000000e+00, 0.0000000000, 1.0000000000, 0.0024214784
          66, 0.00000000e+00, 0.00000000e+00, 0.00000000e+00, 0.00000000e+00, 0.00000000e+00, 0.00000000e+00, 0.00000000e+00, 0.00000000e+00, 0.00000000e+00, 0.00000000e+00, 0.00000000e+00, 0.00000000e+00, -4.86546192e-02, -2.04428981e+00, 3.15423822e+00, 2.70290431e+00, 6.19876711e+00, 1.02214679e+00, 0.00000000e+00, 0.0000000000, 1.0000000000, 0.0024451454
          67, 0.00000000e+00, 0.00000000e+00, 0.00000000e+00, 0.00000000e+00, 0.00000000e+00, 0.00000000e+00, 0.00000000e+00, 0.00000000e+00, 0.00000000e+00, 0.00000000e+00, 0.00000000e+00, 0.00000000e+00, -7.08516069e-02, -2.06648680e+00, 3.13286862e+00, 2.66461386e+00, 6.17808078e+00, 9.99949544e-01, 0.00000000e+00, 0.0000000000, 1.0000000000, 0.0024686774
          68, 0.00000000e+00, 0.00000000e+00, 0.00000000e+00, 0.00000000e+00, 0.00000000e+00, 0.00000000e+00, 0.00000000e+00, 0.00000000e+00, 0.00000000e+00, 0.00000000e+00, 0.00000000e+00, 0.00000000e+00, -9.35309474e-02, -2.08916614e+00, 3.11049484e+00, 2.62623105e+00, 6.15600518e+00, 9.77279380e-01, 0.00000000e+00, 0.0000000000, 1.0000000000, 0.0024916967
          69, 0.00000000e+00, 0.00000000e+00, 0.00000000e+00, 0.00000000e+00, 0.00000000e+00, 0.00000000e+00, 0.00000000e+00, 0.00000000e+00, 0.00000000e+00, 0.00000000e+00, 0.00000000e+00, 0.00000000e+00, -1.17064973e-01, -2.11270017e+00, 3.08676477e+00, 2.58792895e+00, 6.13220368e+00, 9.53760809e-01, 0.00000000e+00, 0.0000000000, 1.0000000000, 0.0025145968
          70, 0.00000000e+00, 0.00000000e+00, 0.00000000e+00, 0.00000000e+00, 0.00000000e+00, 0.00000000e+00, 0.00000000e+00, 0.00000000e+00, 0.00000000e+00, 0.00000000e+00, 0.00000000e+00, 0.00000000e+00, -1.41666697e-01, -2.13730189e+00, 3.06150430e+00, 2.54990345e+00, 6.10653069e+00, 9.29178268e-01, 0.00000000e+00, 0.0000000000, 1.0000000000, 0.0025379459
          71, 0.00000000e+00, 0.00000000e+00, 0.00000000e+00, 0.00000000e+00, 0.00000000e+00, 0.00000000e+00, 0.00000000e+00, 0.00000000e+00, 0.00000000e+00, 0.00000000e+00, 0.00000000e+00, 0.00000000e+00, -1.67418634e-01, -2.16305383e+00, 3.03467689e+00, 2.51237049e+00, 6.07898272e+00, 9.03447324e-01, 0.00000000e+00, 0.0000000000, 1.0000000000, 0.0025617957
          72, 0.00000000e+00, 0.00000000e+00, 0.00000000e+00, 0.00000000e+00, 0.00000000e+00, 0.00000000e+00, 0.00000000e+00, 0.00000000e+00, 0.00000000e+00, 0.00000000e+00, 0.00000000e+00, 0.00000000e+00, -1.94302849e-01, -2.18993804e+00, 3.00634845e+00, 2.47555347e+00, 6.04965947e+00, 8.76584547e-01, 0.00000000e+00, 0.0000000000, 1.0000000000, 0.0025848111
          73, 0.00000000e+00, 0.00000000e+00, 0.00000000e+00, 0.00000000e+00, 0.00000000e+00, 0.00000000e+00, 0.00000000e+00, 0.00000000e+00, 0.00000000e+00, 0.00000000e+00, 0.00000000e+00, 0.00000000e+00, -2.22225666e-01, -2.21786086e+00, 2.97666107e+00, 2.43967074e+00, 6.01873716e+00, 8.48682691e-01, 0.00000000e+00, 0.0000000000, 1.0000000000, 0.0026086768
          74, 0.00000000e+00, 0.00000000e+00, 0.00000000e+00, 0.00000000e+00, 0.00000000e+00, 0.00000000e+00, 0.00000000e+00, 0.00000000e+00, 0.00000000e+00, 0.00000000e+00, 0.00000000e+00, 0.00000000e+00, -2.51038189e-01, -2.24667338e+00, 2.94581297e+00, 2.40492074e+00, 5.98644962e+00, 8.19890074e-01, 0.00000000e+00, 0.0000000000, 1.0000000000, 0.0026330948
          75, 0.00000000e+00, 0.00000000e+00, 0.00000000e+00, 0.00000000e+00, 0.00000000e+00, 0.00000000e+00, 0.00000000e+00, 0.00000000e+00, 0.00000000e+00, 0.00000000e+00, 0.00000000e+00, 0.00000000e+00, -2.80553588e-01, -2.27618878e+00, 2.91404253e+00, 2.37146651e+00, 5.95307411e+00, 7.90393217e-01, 0.00000000e+00, 0.0000000000, 1.0000000000, 0.0026560942
          76, 0.00000000e+00, 0.00000000e+00, 0.00000000e+00, 0.00000000e+00, 0.00000000e+00, 0.00000000e+00, 0.00000000e+00, 0.00000000e+00, 0.00000000e+00, 0.00000000e+00, 0.00000000e+00, 0.00000000e+00, -3.10562351e-01, -2.30619755e+00, 2.88161429e+00, 2.33942174e+00, 5.91891888e+00, 7.60401527e-01, 0.00000000e+00, 0.0000000000, 1.0000000000, 0.0026802142
          77, 0.00000000e+00, 0.00000000e+00, 0.00000000e+00, 0.00000000e+00, 0.00000000e+00, 0.00000000e+00, 0.00000000e+00, 0.00000000e+00, 0.00000000e+00, 0.00000000e+00, 0.00000000e+00, 0.00000000e+00, -3.40846458e-01, -2.33648165e+00, 2.84880520e+00, 2.30884054e+00, 5.88431043e+00, 7.30133082e-01, 0.00000000e+00, 0.0000000000, 1.0000000000, 0.0027037303
          78, 0.00000000e+00, 0.00000000e+00, 0.00000000e+00, 0.00000000e+00, 0.00000000e+00, 0.00000000e+00, 0.00000000e+00, 0.00000000e+00, 0.00000000e+00, 0.00000000e+00, 0.00000000e+00, 0.00000000e+00, -3.71192934e-01, -2.36682813e+00, 2.81589044e+00, 2.27971295e+00, 5.84957895e+00, 6.99801037e-01, 0.00000000e+00, 0.0000000000, 1.0000000000, 0.0027270158
          79, 0.00000000e+00, 0.00000000e+00, 0.00000000e+00, 0.00000000e+00, 0.00000000e+00, 0.00000000e+00, 0.00000000e+00, 0.00000000e+00, 0.00000000e+00, 0.00000000e+00, 0.00000000e+00, 0.00000000e+00, -4.01406675e-01, -2.39704187e+00, 2.78312858e+00, 2.25196679e+00, 5.81504159e+00, 6.69600765e-01, 0.00000000e+00, 0.0000000000, 1.0000000000, 0.0027504126
          80, 0.00000000e+00, 0.00000000e+00, 0.00000000e+00, 0.00000000e+00, 0.00000000e+00, 0.00000000e+00, 0.00000000e+00, 0.00000000e+00, 0.00000000e+00, 0.00000000e+00, 0.00000000e+00, 0.00000000e+00, -4.31321929e-01, -2.42695712e+00, 2.75074674e+00, 2.22547551e+00, 5.78098427e+00, 6.39698347e-01, 0.00000000e+00, 0.0000000000, 1.0000000000, 0.0027740121
          81, 0.00000000e+00, 0.00000000e+00, 0.00000000e+00, 0.00000000e+00, 0.00000000e+00, 0.00000000e+00, 0.00000000e+00, 0.00000000e+00, 0.00000000e+00, 0.00000000e+00, 0.00000000e+00, 0.00000000e+00, -4.60811483e-01, -2.45644668e+00, 2.71892741e+00, 2.20007056e+00, 5.74764375e+00, 6.10221342e-01, 0.00000000e+00, 0.0000000000, 1.0000000000, 0.0027982314