# vtk DataFile Version 3.0
vtk output
ASCII
DATASET UNSTRUCTURED_GRID
POINTS 36 double
0.000000e+00	0.000000e+00	0.0	2.000000e-01	0.000000e+00	0.0	4.000000e-01	0.000000e+00	0.0	6.000000e-01	0.000000e+00	0.0	8.000000e-01	0.000000e+00	0.0	1.000000e+00	0.000000e+00	0.0	0.000000e+00	2.000000e-01	0.0	2.000000e-01	2.000000e-01	0.0	4.000000e-01	2.000000e-01	0.0	6.000000e-01	2.000000e-01	0.0	8.000000e-01	2.000000e-01	0.0	1.000000e+00	2.000000e-01	0.0	0.000000e+00	4.000000e-01	0.0	2.000000e-01	4.000000e-01	0.0	4.000000e-01	4.000000e-01	0.0	6.000000e-01	4.000000e-01	0.0	8.000000e-01	4.000000e-01	0.0	1.000000e+00	4.000000e-01	0.0	0.000000e+00	6.000000e-01	0.0	2.000000e-01	6.000000e-01	0.0	4.000000e-01	6.000000e-01	0.0	6.000000e-01	6.000000e-01	0.0	8.000000e-01	6.000000e-01	0.0	1.000000e+00	6.000000e-01	0.0	0.000000e+00	8.000000e-01	0.0	2.000000e-01	8.000000e-01	0.0	4.000000e-01	8.000000e-01	0.0	6.000000e-01	8.000000e-01	0.0	8.000000e-01	8.000000e-01	0.0	1.000000e+00	8.000000e-01	0.0	0.000000e+00	1.000000e+00	0.0	2.000000e-01	1.000000e+00	0.0	4.000000e-01	1.000000e+00	0.0	6.000000e-01	1.000000e+00	0.0	8.000000e-01	1.000000e+00	0.0	1.000000e+00	1.000000e+00	0.0	
CELLS 25	125
4	0	1	7	6	4	1	2	8	7	4	2	3	9	8	4	3	4	10	9	4	4	5	11	10	4	6	7	13	12	4	7	8	14	13	4	8	9	15	14	4	9	10	16	15	4	10	11	17	16	4	12	13	19	18	4	13	14	20	19	4	14	15	21	20	4	15	16	22	21	4	16	17	23	22	4	18	19	25	24	4	19	20	26	25	4	20	21	27	26	4	21	22	28	27	4	22	23	29	28	4	24	25	31	30	4	25	26	32	31	4	26	27	33	32	4	27	28	34	33	4	28	29	35	34	
CELL_TYPES 25
9	9	9	9	9	9	9	9	9	9	9	9	9	9	9	9	9	9	9	9	9	9	9	9	9	
POINT_DATA 36

SCALARS Density[0] double 1
LOOKUP_TABLE default
0.000000e+00	0.000000e+00	0.000000e+00	0.000000e+00	0.000000e+00	0.000000e+00	0.000000e+00	0.000000e+00	0.000000e+00	0.000000e+00	0.000000e+00	0.000000e+00	0.000000e+00	0.000000e+00	0.000000e+00	0.000000e+00	0.000000e+00	0.000000e+00	0.000000e+00	0.000000e+00	0.000000e+00	0.000000e+00	0.000000e+00	0.000000e+00	0.000000e+00	0.000000e+00	0.000000e+00	0.000000e+00	0.000000e+00	0.000000e+00	0.000000e+00	0.000000e+00	0.000000e+00	0.000000e+00	0.000000e+00	0.000000e+00	
SCALARS Density[1] double 1
LOOKUP_TABLE default
9.528085e-03	9.528085e-03	9.528085e-03	9.528085e-03	9.528085e-03	9.528085e-03	9.528085e-03	9.528085e-03	9.528085e-03	9.528085e-03	9.528085e-03	9.528085e-03	9.528085e-03	9.528085e-03	9.528085e-03	9.528085e-03	9.528085e-03	9.528085e-03	9.528085e-03	9.528085e-03	9.528085e-03	9.528085e-03	9.528085e-03	9.528085e-03	9.528085e-03	9.528085e-03	9.528085e-03	9.528085e-03	9.528085e-03	9.528085e-03	9.528085e-03	9.528085e-03	9.528085e-03	9.528085e-03	9.528085e-03	9.528085e-03	
SCALARS Density[2] double 1
LOOKUP_TABLE default
0.000000e+00	0.000000e+00	0.000000e+00	0.000000e+00	0.000000e+00	0.000000e+00	0.000000e+00	0.000000e+00	0.000000e+00	0.000000e+00	0.000000e+00	0.000000e+00	0.000000e+00	0.000000e+00	0.000000e+00	0.000000e+00	0.000000e+00	0.000000e+00	0.000000e+00	0.000000e+00	0.000000e+00	0.000000e+00	0.000000e+00	0.000000e+00	0.000000e+00	0.000000e+00	0.000000e+00	0.000000e+00	0.000000e+00	0.000000e+00	0.000000e+00	0.000000e+00	0.000000e+00	0.000000e+00	0.000000e+00	0.000000e+00	
SCALARS Density[3] double 1
LOOKUP_TABLE default
0.000000e+00	0.000000e+00	0.000000e+00	0.000000e+00	0.000000e+00	0.000000e+00	0.000000e+00	0.000000e+00	0.000000e+00	0.000000e+00	0.000000e+00	0.000000e+00	0.000000e+00	0.000000e+00	0.000000e+00	0.000000e+00	0.000000e+00	0.000000e+00	0.000000e+00	0.000000e+00	0.000000e+00	0.000000e+00	0.000000e+00	0.000000e+00	0.000000e+00	0.000000e+00	0.000000e+00	0.000000e+00	0.000000e+00	0.000000e+00	0.000000e+00	0.000000e+00	0.000000e+00	0.000000e+00	0.000000e+00	0.000000e+00	
SCALARS Density[4] double 1
LOOKUP_TABLE default
7.709087e-02	7.709087e-02	7.709087e-02	7.709087e-02	7.709087e-02	7.709087e-02	7.709087e-02	7.709087e-02	7.709087e-02	7.709087e-02	7.709087e-02	7.709087e-02	7.709087e-02	7.709087e-02	7.709087e-02	7.709087e-02	7.709087e-02	7.709087e-02	7.709087e-02	7.709087e-02	7.709087e-02	7.709087e-02	7.709087e-02	7.709087e-02	7.709087e-02	7.709087e-02	7.709087e-02	7.709087e-02	7.709087e-02	7.709087e-02	7.709087e-02	7.709087e-02	7.709087e-02	7.709087e-02	7.709087e-02	7.709087e-02	
SCALARS Density[5] double 1
LOOKUP_TABLE default
0.000000e+00	0.000000e+00	0.000000e+00	0.000000e+00	0.000000e+00	0.000000e+00	0.000000e+00	0.000000e+00	0.000000e+00	0.000000e+00	0.000000e+00	0.000000e+00	0.000000e+00	0.000000e+00	0.000000e+00	0.000000e+00	0.000000e+00	0.000000e+00	0.000000e+00	0.000000e+00	0.000000e+00	0.000000e+00	0.000000e+00	0.000000e+00	0.000000e+00	0.000000e+00	0.000000e+00	0.000000e+00	0.000000e+00	0.000000e+00	0.000000e+00	0.000000e+00	0.000000e+00	0.000000e+00	0.000000e+00	0.000000e+00	
SCALARS Density[6] double 1
LOOKUP_TABLE default
0.000000e+00	0.000000e+00	0.000000e+00	0.000000e+00	0.000000e+00	0.000000e+00	0.000000e+00	0.000000e+00	0.000000e+00	0.000000e+00	0.000000e+00	0.000000e+00	0.000000e+00	0.000000e+00	0.000000e+00	0.000000e+00	0.000000e+00	0.000000e+00	0.000000e+00	0.000000e+00	0.000000e+00	0.000000e+00	0.000000e+00	0.000000e+00	0.000000e+00	0.000000e+00	0.000000e+00	0.000000e+00	0.000000e+00	0.000000e+00	0.000000e+00	0.000000e+00	0.000000e+00	0.000000e+00	0.000000e+00	0.000000e+00	
SCALARS Density[7] double 1
LOOKUP_TABLE default
0.000000e+00	0.000000e+00	0.000000e+00	0.000000e+00	0.000000e+00	0.000000e+00	0.000000e+00	0.000000e+00	0.000000e+00	0.000000e+00	0.000000e+00	0.000000e+00	0.000000e+00	0.000000e+00	0.000000e+00	0.000000e+00	0.000000e+00	0.000000e+00	0.000000e+00	0.000000e+00	0.000000e+00	0.000000e+00	0.000000e+00	0.000000e+00	0.000000e+00	0.000000e+00	0.000000e+00	0.000000e+00	0.000000e+00	0.000000e+00	0.000000e+00	0.000000e+00	0.000000e+00	0.000000e+00	0.000000e+00	0.000000e+00	
VECTORS Momentum double
2.224553e+01	0.000000e+00	0.0	2.224553e+01	-4.426702e-15	0.0	2.224553e+01	4.426702e-15	0.0	2.224553e+01	0.000000e+00	0.0	2.224553e+01	0.000000e+00	0.0	2.224553e+01	0.000000e+00	0.0	2.224553e+01	0.000000e+00	0.0	2.224553e+01	-3.219420e-15	0.0	2.224553e+01	0.000000e+00	0.0	2.224553e+01	0.000000e+00	0.0	2.224553e+01	0.000000e+00	0.0	2.224553e+01	0.000000e+00	0.0	2.224553e+01	0.000000e+00	0.0	2.224553e+01	0.000000e+00	0.0	2.224553e+01	0.000000e+00	0.0	2.224553e+01	3.219420e-15	0.0	2.224553e+01	0.000000e+00	0.0	2.224553e+01	0.000000e+00	0.0	2.224553e+01	0.000000e+00	0.0	2.224553e+01	-3.219420e-15	0.0	2.224553e+01	0.000000e+00	0.0	2.224553e+01	6.438840e-15	0.0	2.224553e+01	0.000000e+00	0.0	2.224553e+01	0.000000e+00	0.0	2.224553e+01	0.000000e+00	0.0	2.224553e+01	0.000000e+00	0.0	2.224553e+01	0.000000e+00	0.0	2.224553e+01	6.438840e-15	0.0	2.224553e+01	0.000000e+00	0.0	2.224553e+01	0.000000e+00	0.0	2.224553e+01	0.000000e+00	0.0	2.224553e+01	0.000000e+00	0.0	2.224553e+01	0.000000e+00	0.0	2.224553e+01	0.000000e+00	0.0	2.224553e+01	0.000000e+00	0.0	2.224553e+01	0.000000e+00	0.0	
SCALARS Energy double 1
LOOKUP_TABLE default
-9.631827e+04	-9.631827e+04	-9.631827e+04	-9.631827e+04	-9.631827e+04	-9.631827e+04	-9.631827e+04	-9.631827e+04	-9.631827e+04	-9.631827e+04	-9.631827e+04	-9.631827e+04	-9.631827e+04	-9.631827e+04	-9.631827e+04	-9.631827e+04	-9.631827e+04	-9.631827e+04	-9.631827e+04	-9.631827e+04	-9.631827e+04	-9.631827e+04	-9.631827e+04	-9.631827e+04	-9.631827e+04	-9.631827e+04	-9.631827e+04	-9.631827e+04	-9.631827e+04	-9.631827e+04	-9.631827e+04	-9.631827e+04	-9.631827e+04	-9.631827e+04	-9.631827e+04	-9.631827e+04	
SCALARS Electronic Energy double 1
LOOKUP_TABLE default
2.372632e-03	2.372632e-03	2.372632e-03	2.372632e-03	2.372632e-03	2.372632e-03	2.372632e-03	2.372632e-03	2.372632e-03	2.372632e-03	2.372632e-03	2.372632e-03	2.372632e-03	2.372632e-03	2.372632e-03	2.372632e-03	2.372632e-03	2.372632e-03	2.372632e-03	2.372632e-03	2.372632e-03	2.372632e-03	2.372632e-03	2.372632e-03	2.372632e-03	2.372632e-03	2.372632e-03	2.372632e-03	2.372632e-03	2.372632e-03	2.372632e-03	2.372632e-03	2.372632e-03	2.372632e-03	2.372632e-03	2.372632e-03	
SCALARS Total Density double 1
LOOKUP_TABLE default
8.661895e-02	8.661895e-02	8.661895e-02	8.661895e-02	8.661895e-02	8.661895e-02	8.661895e-02	8.661895e-02	8.661895e-02	8.661895e-02	8.661895e-02	8.661895e-02	8.661895e-02	8.661895e-02	8.661895e-02	8.661895e-02	8.661895e-02	8.661895e-02	8.661895e-02	8.661895e-02	8.661895e-02	8.661895e-02	8.661895e-02	8.661895e-02	8.661895e-02	8.661895e-02	8.661895e-02	8.661895e-02	8.661895e-02	8.661895e-02	8.661895e-02	8.661895e-02	8.661895e-02	8.661895e-02	8.661895e-02	8.661895e-02	
SCALARS Pressure double 1
LOOKUP_TABLE default
1.013250e+05	1.013250e+05	1.013250e+05	1.013250e+05	1.013250e+05	1.013250e+05	1.013250e+05	1.013250e+05	1.013250e+05	1.013250e+05	1.013250e+05	1.013250e+05	1.013250e+05	1.013250e+05	1.013250e+05	1.013250e+05	1.013250e+05	1.013250e+05	1.013250e+05	1.013250e+05	1.013250e+05	1.013250e+05	1.013250e+05	1.013250e+05	1.013250e+05	1.013250e+05	1.013250e+05	1.013250e+05	1.013250e+05	1.013250e+05	1.013250e+05	1.013250e+05	1.013250e+05	1.013250e+05	1.013250e+05	1.013250e+05	
SCALARS Temperature double 1
LOOKUP_TABLE default
3.000000e+02	3.000000e+02	3.000000e+02	3.000000e+02	3.000000e+02	3.000000e+02	3.000000e+02	3.000000e+02	3.000000e+02	3.000000e+02	3.000000e+02	3.000000e+02	3.000000e+02	3.000000e+02	3.000000e+02	3.000000e+02	3.000000e+02	3.000000e+02	3.000000e+02	3.000000e+02	3.000000e+02	3.000000e+02	3.000000e+02	3.000000e+02	3.000000e+02	3.000000e+02	3.000000e+02	3.000000e+02	3.000000e+02	3.000000e+02	3.000000e+02	3.000000e+02	3.000000e+02	3.000000e+02	3.000000e+02	3.000000e+02	
SCALARS Tve double 1
LOOKUP_TABLE default
3.000000e+02	3.000000e+02	3.000000e+02	3.000000e+02	3.000000e+02	3.000000e+02	3.000000e+02	3.000000e+02	3.000000e+02	3.000000e+02	3.000000e+02	3.000000e+02	3.000000e+02	3.000000e+02	3.000000e+02	3.000000e+02	3.000000e+02	3.000000e+02	3.000000e+02	3.000000e+02	3.000000e+02	3.000000e+02	3.000000e+02	3.000000e+02	3.000000e+02	3.000000e+02	3.000000e+02	3.000000e+02	3.000000e+02	3.000000e+02	3.000000e+02	3.000000e+02	3.000000e+02	3.000000e+02	3.000000e+02	3.000000e+02	
SCALARS Mach double 1
LOOKUP_TABLE default
2.000000e-01	2.000000e-01	2.000000e-01	2.000000e-01	2.000000e-01	2.000000e-01	2.000000e-01	2.000000e-01	2.000000e-01	2.000000e-01	2.000000e-01	2.000000e-01	2.000000e-01	2.000000e-01	2.000000e-01	2.000000e-01	2.000000e-01	2.000000e-01	2.000000e-01	2.000000e-01	2.000000e-01	2.000000e-01	2.000000e-01	2.000000e-01	2.000000e-01	2.000000e-01	2.000000e-01	2.000000e-01	2.000000e-01	2.000000e-01	2.000000e-01	2.000000e-01	2.000000e-01	2.000000e-01	2.000000e-01	2.000000e-01	
SCALARS Pressure_Coefficient double 1
LOOKUP_TABLE default
0.000000e+00	0.000000e+00	0.000000e+00	0.000000e+00	0.000000e+00	0.000000e+00	0.000000e+00	0.000000e+00	0.000000e+00	0.000000e+00	0.000000e+00	0.000000e+00	0.000000e+00	0.000000e+00	0.000000e+00	0.000000e+00	0.000000e+00	0.000000e+00	0.000000e+00	0.000000e+00	0.000000e+00	0.000000e+00	0.000000e+00	0.000000e+00	0.000000e+00	0.000000e+00	0.000000e+00	0.000000e+00	0.000000e+00	0.000000e+00	0.000000e+00	0.000000e+00	0.000000e+00	0.000000e+00	0.000000e+00	0.000000e+00	