TITLE = "SU2 Simulation"
VARIABLES = "Iteration","CL","CD","CSF","CMx","CMy","CMz","CFx","CFy","CFz","CL/CD","AoA","Custom_ObjFunc","Res_Flow[0]","Res_Flow[1]","Res_Flow[2]","Res_Flow[3]","Res_Flow[4]","Linear_Solver_Iterations","CFL_Number","Time(min)"
ZONE T= "Convergence history"
           0, 0.00000000e+00, 0.00000000e+00, 0.00000000e+00, 0.00000000e+00, 0.00000000e+00, 0.00000000e+00, 0.00000000e+00, 0.00000000e+00, 0.00000000e+00, 0.00000000e+00, 0.00000000e+00, 0.00000000e+00, -1.12177159e+01, -1.15864892e+01, -1.14346624e+01, -1.14452571e+01, -3.77851742e+00, -5.43773752e+00, 0.00000000e+00, 0.0000000000, 1.0000000000, 0.0357787013
           1, 0.00000000e+00, 0.00000000e+00, 0.00000000e+00, 0.00000000e+00, 0.00000000e+00, 0.00000000e+00, 0.00000000e+00, 0.00000000e+00, 0.00000000e+00, 0.00000000e+00, 0.00000000e+00, 0.00000000e+00, -1.10815610e+01, -1.14595626e+01, -1.13510942e+01, -1.13721930e+01, -3.76956258e+00, -5.26917072e+00, 0.00000000e+00, 0.0000000000, 1.0000000000, 0.0721345663
           2, 0.00000000e+00, 0.00000000e+00, 0.00000000e+00, 0.00000000e+00, 0.00000000e+00, 0.00000000e+00, 0.00000000e+00, 0.00000000e+00, 0.00000000e+00, 0.00000000e+00, 0.00000000e+00, 0.00000000e+00, -1.10744569e+01, -1.15760400e+01, -1.12768843e+01, -1.13083433e+01, -3.76614968e+00, -5.35472207e+00, 0.00000000e+00, 0.0000000000, 1.0000000000, 0.0985281666
           3, 0.00000000e+00, 0.00000000e+00, 0.00000000e+00, 0.00000000e+00, 0.00000000e+00, 0.00000000e+00, 0.00000000e+00, 0.00000000e+00, 0.00000000e+00, 0.00000000e+00, 0.00000000e+00, 0.00000000e+00, -1.09715327e+01, -1.13783041e+01, -1.12183795e+01, -1.13613875e+01, -3.87342842e+00, -5.14223615e+00, 0.00000000e+00, 0.0000000000, 1.0000000000, 0.1260290345
           4, 0.00000000e+00, 0.00000000e+00, 0.00000000e+00, 0.00000000e+00, 0.00000000e+00, 0.00000000e+00, 0.00000000e+00, 0.00000000e+00, 0.00000000e+00, 0.00000000e+00, 0.00000000e+00, 0.00000000e+00, -1.12753602e+01, -1.15267422e+01, -1.14937123e+01, -1.15364274e+01, -3.93667081e+00, -5.39589855e+00, 0.00000000e+00, 0.0000000000, 1.0000000000, 0.1533389846
           5, 0.00000000e+00, 0.00000000e+00, 0.00000000e+00, 0.00000000e+00, 0.00000000e+00, 0.00000000e+00, 0.00000000e+00, 0.00000000e+00, 0.00000000e+00, 0.00000000e+00, 0.00000000e+00, 0.00000000e+00, -1.11343849e+01, -1.13703505e+01, -1.14135630e+01, -1.14716098e+01, -3.93247629e+00, -5.39416891e+00, 0.00000000e+00, 0.0000000000, 1.0000000000, 0.1821494818
           6, 0.00000000e+00, 0.00000000e+00, 0.00000000e+00, 0.00000000e+00, 0.00000000e+00, 0.00000000e+00, 0.00000000e+00, 0.00000000e+00, 0.00000000e+00, 0.00000000e+00, 0.00000000e+00, 0.00000000e+00, -1.10072677e+01, -1.14648277e+01, -1.13431972e+01, -1.12931964e+01, -3.97129859e+00, -5.24384203e+00, 0.00000000e+00, 0.0000000000, 1.0000000000, 0.2101666490
