TITLE = "Visualization of the volumetric solution"
VARIABLES = "x","y","Density[0]","Density[1]","Momentum_x","Momentum_y","Energy","Electronic_Energy","Total_Density","Pressure","Temperature","Tve","Mach","C<sub>p</sub>"
ZONE STRANDID=2, SOLUTIONTIME=1e-08, NODES= 36, ELEMENTS= 25, DATAPACKING=POINT, ZONETYPE=FEQUADRILATERAL
0.000000e+00	0.000000e+00	1.708221e-02	8.528300e-03	3.856521e-05	3.856521e-05	4.818713e+05	2.055032e+03	2.561051e-02	1.005933e+05	9.927791e+03	1.520491e+03	8.773746e-07	-inf	
2.000000e-01	0.000000e+00	1.708221e-02	8.528300e-03	2.134936e-09	3.856521e-05	4.818713e+05	2.055032e+03	2.561051e-02	1.005933e+05	9.927791e+03	1.520491e+03	6.203975e-07	-inf	
4.000000e-01	0.000000e+00	1.708221e-02	8.528300e-03	2.181397e-13	3.856521e-05	4.818713e+05	2.055032e+03	2.561051e-02	1.005933e+05	9.927791e+03	1.520491e+03	6.203975e-07	-inf	
6.000000e-01	0.000000e+00	1.708221e-02	8.528300e-03	-2.181395e-13	3.856521e-05	4.818713e+05	2.055032e+03	2.561051e-02	1.005933e+05	9.927791e+03	1.520491e+03	6.203975e-07	-inf	
8.000000e-01	0.000000e+00	1.708221e-02	8.528300e-03	-2.134936e-09	3.856521e-05	4.818713e+05	2.055032e+03	2.561051e-02	1.005933e+05	9.927791e+03	1.520491e+03	6.203975e-07	-inf	
1.000000e+00	0.000000e+00	1.708221e-02	8.528300e-03	-3.856521e-05	3.856521e-05	4.818713e+05	2.055032e+03	2.561051e-02	1.005933e+05	9.927791e+03	1.520491e+03	8.773746e-07	-inf	
0.000000e+00	2.000000e-01	1.708221e-02	8.528300e-03	3.856521e-05	2.134936e-09	4.818713e+05	2.055032e+03	2.561051e-02	1.005933e+05	9.927791e+03	1.520491e+03	6.203975e-07	-inf	
2.000000e-01	2.000000e-01	1.708221e-02	8.528300e-03	2.134936e-09	2.134936e-09	4.818713e+05	2.055032e+03	2.561051e-02	1.005933e+05	9.927791e+03	1.520491e+03	4.857068e-11	-inf	
4.000000e-01	2.000000e-01	1.708221e-02	8.528300e-03	2.181387e-13	2.134936e-09	4.818713e+05	2.055032e+03	2.561051e-02	1.005933e+05	9.927791e+03	1.520491e+03	3.434466e-11	-inf	
6.000000e-01	2.000000e-01	1.708221e-02	8.528300e-03	-2.181389e-13	2.134936e-09	4.818713e+05	2.055032e+03	2.561051e-02	1.005933e+05	9.927791e+03	1.520491e+03	3.434466e-11	-inf	
8.000000e-01	2.000000e-01	1.708221e-02	8.528300e-03	-2.134936e-09	2.134936e-09	4.818713e+05	2.055032e+03	2.561051e-02	1.005933e+05	9.927791e+03	1.520491e+03	4.857068e-11	-inf	
1.000000e+00	2.000000e-01	1.708221e-02	8.528300e-03	-3.856521e-05	2.134936e-09	4.818713e+05	2.055032e+03	2.561051e-02	1.005933e+05	9.927791e+03	1.520491e+03	6.203975e-07	-inf	
0.000000e+00	4.000000e-01	1.708221e-02	8.528300e-03	3.856521e-05	2.181395e-13	4.818713e+05	2.055032e+03	2.561051e-02	1.005933e+05	9.927791e+03	1.520491e+03	6.203975e-07	-inf	
2.000000e-01	4.000000e-01	1.708221e-02	8.528300e-03	2.134936e-09	2.181399e-13	4.818713e+05	2.055032e+03	2.561051e-02	1.005933e+05	9.927791e+03	1.520491e+03	3.434466e-11	-inf	
4.000000e-01	4.000000e-01	1.708221e-02	8.528300e-03	2.181371e-13	2.181387e-13	4.818713e+05	2.055032e+03	2.561051e-02	1.005933e+05	9.927791e+03	1.520491e+03	4.962727e-15	-inf	
6.000000e-01	4.000000e-01	1.708221e-02	8.528300e-03	-2.181399e-13	2.181358e-13	4.818713e+05	2.055032e+03	2.561051e-02	1.005933e+05	9.927791e+03	1.520491e+03	4.962727e-15	-inf	
8.000000e-01	4.000000e-01	1.708221e-02	8.528300e-03	-2.134936e-09	2.181373e-13	4.818713e+05	2.055032e+03	2.561051e-02	1.005933e+05	9.927791e+03	1.520491e+03	3.434466e-11	-inf	
1.000000e+00	4.000000e-01	1.708221e-02	8.528300e-03	-3.856521e-05	2.181393e-13	4.818713e+05	2.055032e+03	2.561051e-02	1.005933e+05	9.927791e+03	1.520491e+03	6.203975e-07	-inf	
0.000000e+00	6.000000e-01	1.708221e-02	8.528300e-03	3.856521e-05	-2.181419e-13	4.818713e+05	2.055032e+03	2.561051e-02	1.005933e+05	9.927791e+03	1.520491e+03	6.203975e-07	-inf	
2.000000e-01	6.000000e-01	1.708221e-02	8.528300e-03	2.134936e-09	-2.181387e-13	4.818713e+05	2.055032e+03	2.561051e-02	1.005933e+05	9.927791e+03	1.520491e+03	3.434466e-11	-inf	
4.000000e-01	6.000000e-01	1.708221e-02	8.528300e-03	2.181346e-13	-2.181370e-13	4.818713e+05	2.055032e+03	2.561051e-02	1.005933e+05	9.927791e+03	1.520491e+03	4.962681e-15	-inf	
6.000000e-01	6.000000e-01	1.708221e-02	8.528300e-03	-2.181410e-13	-2.181381e-13	4.818713e+05	2.055032e+03	2.561051e-02	1.005933e+05	9.927791e+03	1.520491e+03	4.962764e-15	-inf	
8.000000e-01	6.000000e-01	1.708221e-02	8.528300e-03	-2.134936e-09	-2.181387e-13	4.818713e+05	2.055032e+03	2.561051e-02	1.005933e+05	9.927791e+03	1.520491e+03	3.434466e-11	-inf	
1.000000e+00	6.000000e-01	1.708221e-02	8.528300e-03	-3.856521e-05	-2.181403e-13	4.818713e+05	2.055032e+03	2.561051e-02	1.005933e+05	9.927791e+03	1.520491e+03	6.203975e-07	-inf	
0.000000e+00	8.000000e-01	1.708221e-02	8.528300e-03	3.856521e-05	-2.134936e-09	4.818713e+05	2.055032e+03	2.561051e-02	1.005933e+05	9.927791e+03	1.520491e+03	6.203975e-07	-inf	
2.000000e-01	8.000000e-01	1.708221e-02	8.528300e-03	2.134936e-09	-2.134936e-09	4.818713e+05	2.055032e+03	2.561051e-02	1.005933e+05	9.927791e+03	1.520491e+03	4.857069e-11	-inf	
4.000000e-01	8.000000e-01	1.708221e-02	8.528300e-03	2.181364e-13	-2.134936e-09	4.818713e+05	2.055032e+03	2.561051e-02	1.005933e+05	9.927791e+03	1.520491e+03	3.434466e-11	-inf	
6.000000e-01	8.000000e-01	1.708221e-02	8.528300e-03	-2.181393e-13	-2.134936e-09	4.818713e+05	2.055032e+03	2.561051e-02	1.005933e+05	9.927791e+03	1.520491e+03	3.434466e-11	-inf	
8.000000e-01	8.000000e-01	1.708221e-02	8.528300e-03	-2.134936e-09	-2.134936e-09	4.818713e+05	2.055032e+03	2.561051e-02	1.005933e+05	9.927791e+03	1.520491e+03	4.857068e-11	-inf	
1.000000e+00	8.000000e-01	1.708221e-02	8.528300e-03	-3.856521e-05	-2.134936e-09	4.818713e+05	2.055032e+03	2.561051e-02	1.005933e+05	9.927791e+03	1.520491e+03	6.203975e-07	-inf	
0.000000e+00	1.000000e+00	1.708221e-02	8.528300e-03	3.856521e-05	-3.856521e-05	4.818713e+05	2.055032e+03	2.561051e-02	1.005933e+05	9.927791e+03	1.520491e+03	8.773746e-07	-inf	
2.000000e-01	1.000000e+00	1.708221e-02	8.528300e-03	2.134936e-09	-3.856521e-05	4.818713e+05	2.055032e+03	2.561051e-02	1.005933e+05	9.927791e+03	1.520491e+03	6.203975e-07	-inf	
4.000000e-01	1.000000e+00	1.708221e-02	8.528300e-03	2.181409e-13	-3.856521e-05	4.818713e+05	2.055032e+03	2.561051e-02	1.005933e+05	9.927791e+03	1.520491e+03	6.203975e-07	-inf	
6.000000e-01	1.000000e+00	1.708221e-02	8.528300e-03	-2.181375e-13	-3.856521e-05	4.818713e+05	2.055032e+03	2.561051e-02	1.005933e+05	9.927791e+03	1.520491e+03	6.203975e-07	-inf	
8.000000e-01	1.000000e+00	1.708221e-02	8.528300e-03	-2.134936e-09	-3.856521e-05	4.818713e+05	2.055032e+03	2.561051e-02	1.005933e+05	9.927791e+03	1.520491e+03	6.203975e-07	-inf	
1.000000e+00	1.000000e+00	1.708221e-02	8.528300e-03	-3.856521e-05	-3.856521e-05	4.818713e+05	2.055032e+03	2.561051e-02	1.005933e+05	9.927791e+03	1.520491e+03	8.773746e-07	-inf	
1	2	8	7
2	3	9	8
3	4	10	9
4	5	11	10
5	6	12	11
7	8	14	13
8	9	15	14
9	10	16	15
10	11	17	16
11	12	18	17
13	14	20	19
14	15	21	20
15	16	22	21
16	17	23	22
17	18	24	23
19	20	26	25
20	21	27	26
21	22	28	27
22	23	29	28
23	24	30	29
25	26	32	31
26	27	33	32
27	28	34	33
28	29	35	34
29	30	36	35
