TITLE = "Visualization of the volumetric solution"
VARIABLES = "x","y","Density[0]","Density[1]","Momentum_x","Momentum_y","Energy","Electronic_Energy","Total_Density","Pressure","Temperature","Tve","Mach","C<sub>p</sub>"
ZONE STRANDID=1, SOLUTIONTIME=0, NODES= 36, ELEMENTS= 25, DATAPACKING=POINT, ZONETYPE=FEQUADRILATERAL
0.000000e+00	0.000000e+00	1.708221e-02	8.528300e-03	1.063712e-05	1.063712e-05	4.818713e+05	1.229890e+03	2.561051e-02	1.010058e+05	9.968501e+03	1.257068e+03	2.415043e-07	-inf	
2.000000e-01	0.000000e+00	1.708221e-02	8.528300e-03	4.311827e-10	1.063712e-05	4.818713e+05	1.229890e+03	2.561051e-02	1.010058e+05	9.968501e+03	1.257068e+03	1.707693e-07	-inf	
4.000000e-01	0.000000e+00	1.708221e-02	8.528300e-03	3.478939e-14	1.063712e-05	4.818713e+05	1.229890e+03	2.561051e-02	1.010058e+05	9.968501e+03	1.257068e+03	1.707693e-07	-inf	
6.000000e-01	0.000000e+00	1.708221e-02	8.528300e-03	-3.478878e-14	1.063712e-05	4.818713e+05	1.229890e+03	2.561051e-02	1.010058e+05	9.968501e+03	1.257068e+03	1.707693e-07	-inf	
8.000000e-01	0.000000e+00	1.708221e-02	8.528300e-03	-4.311827e-10	1.063712e-05	4.818713e+05	1.229890e+03	2.561051e-02	1.010058e+05	9.968501e+03	1.257068e+03	1.707693e-07	-inf	
1.000000e+00	0.000000e+00	1.708221e-02	8.528300e-03	-1.063712e-05	1.063712e-05	4.818713e+05	1.229890e+03	2.561051e-02	1.010058e+05	9.968501e+03	1.257068e+03	2.415043e-07	-inf	
0.000000e+00	2.000000e-01	1.708221e-02	8.528300e-03	1.063712e-05	4.311827e-10	4.818713e+05	1.229890e+03	2.561051e-02	1.010058e+05	9.968501e+03	1.257068e+03	1.707693e-07	-inf	
2.000000e-01	2.000000e-01	1.708221e-02	8.528300e-03	4.311827e-10	4.311827e-10	4.818713e+05	1.229890e+03	2.561051e-02	1.010058e+05	9.968501e+03	1.257068e+03	9.789535e-12	-inf	
4.000000e-01	2.000000e-01	1.708221e-02	8.528300e-03	3.478817e-14	4.311827e-10	4.818713e+05	1.229890e+03	2.561051e-02	1.010058e+05	9.968501e+03	1.257068e+03	6.922247e-12	-inf	
6.000000e-01	2.000000e-01	1.708221e-02	8.528300e-03	-3.478878e-14	4.311827e-10	4.818713e+05	1.229890e+03	2.561051e-02	1.010058e+05	9.968501e+03	1.257068e+03	6.922247e-12	-inf	
8.000000e-01	2.000000e-01	1.708221e-02	8.528300e-03	-4.311827e-10	4.311827e-10	4.818713e+05	1.229890e+03	2.561051e-02	1.010058e+05	9.968501e+03	1.257068e+03	9.789535e-12	-inf	
1.000000e+00	2.000000e-01	1.708221e-02	8.528300e-03	-1.063712e-05	4.311827e-10	4.818713e+05	1.229890e+03	2.561051e-02	1.010058e+05	9.968501e+03	1.257068e+03	1.707693e-07	-inf	
0.000000e+00	4.000000e-01	1.708221e-02	8.528300e-03	1.063712e-05	3.478878e-14	4.818713e+05	1.229890e+03	2.561051e-02	1.010058e+05	9.968501e+03	1.257068e+03	1.707693e-07	-inf	
2.000000e-01	4.000000e-01	1.708221e-02	8.528300e-03	4.311827e-10	3.478817e-14	4.818713e+05	1.229890e+03	2.561051e-02	1.010058e+05	9.968501e+03	1.257068e+03	6.922247e-12	-inf	
4.000000e-01	4.000000e-01	1.708221e-02	8.528300e-03	3.478724e-14	3.478817e-14	4.818713e+05	1.229890e+03	2.561051e-02	1.010058e+05	9.968501e+03	1.257068e+03	7.898170e-16	-inf	
6.000000e-01	4.000000e-01	1.708221e-02	8.528300e-03	-3.478817e-14	3.478696e-14	4.818713e+05	1.229890e+03	2.561051e-02	1.010058e+05	9.968501e+03	1.257068e+03	7.898138e-16	-inf	
8.000000e-01	4.000000e-01	1.708221e-02	8.528300e-03	-4.311827e-10	3.478757e-14	4.818713e+05	1.229890e+03	2.561051e-02	1.010058e+05	9.968501e+03	1.257068e+03	6.922247e-12	-inf	
1.000000e+00	4.000000e-01	1.708221e-02	8.528300e-03	-1.063712e-05	3.478817e-14	4.818713e+05	1.229890e+03	2.561051e-02	1.010058e+05	9.968501e+03	1.257068e+03	1.707693e-07	-inf	
0.000000e+00	6.000000e-01	1.708221e-02	8.528300e-03	1.063712e-05	-3.478878e-14	4.818713e+05	1.229890e+03	2.561051e-02	1.010058e+05	9.968501e+03	1.257068e+03	1.707693e-07	-inf	
2.000000e-01	6.000000e-01	1.708221e-02	8.528300e-03	4.311827e-10	-3.478817e-14	4.818713e+05	1.229890e+03	2.561051e-02	1.010058e+05	9.968501e+03	1.257068e+03	6.922247e-12	-inf	
4.000000e-01	6.000000e-01	1.708221e-02	8.528300e-03	3.478696e-14	-3.478696e-14	4.818713e+05	1.229890e+03	2.561051e-02	1.010058e+05	9.968501e+03	1.257068e+03	7.898001e-16	-inf	
6.000000e-01	6.000000e-01	1.708221e-02	8.528300e-03	-3.478994e-14	-3.478817e-14	4.818713e+05	1.229890e+03	2.561051e-02	1.010058e+05	9.968501e+03	1.257068e+03	7.898477e-16	-inf	
8.000000e-01	6.000000e-01	1.708221e-02	8.528300e-03	-4.311827e-10	-3.478817e-14	4.818713e+05	1.229890e+03	2.561051e-02	1.010058e+05	9.968501e+03	1.257068e+03	6.922247e-12	-inf	
1.000000e+00	6.000000e-01	1.708221e-02	8.528300e-03	-1.063712e-05	-3.478939e-14	4.818713e+05	1.229890e+03	2.561051e-02	1.010058e+05	9.968501e+03	1.257068e+03	1.707693e-07	-inf	
0.000000e+00	8.000000e-01	1.708221e-02	8.528300e-03	1.063712e-05	-4.311827e-10	4.818713e+05	1.229890e+03	2.561051e-02	1.010058e+05	9.968501e+03	1.257068e+03	1.707693e-07	-inf	
2.000000e-01	8.000000e-01	1.708221e-02	8.528300e-03	4.311827e-10	-4.311827e-10	4.818713e+05	1.229890e+03	2.561051e-02	1.010058e+05	9.968501e+03	1.257068e+03	9.789535e-12	-inf	
4.000000e-01	8.000000e-01	1.708221e-02	8.528300e-03	3.478696e-14	-4.311827e-10	4.818713e+05	1.229890e+03	2.561051e-02	1.010058e+05	9.968501e+03	1.257068e+03	6.922247e-12	-inf	
6.000000e-01	8.000000e-01	1.708221e-02	8.528300e-03	-3.478817e-14	-4.311827e-10	4.818713e+05	1.229890e+03	2.561051e-02	1.010058e+05	9.968501e+03	1.257068e+03	6.922247e-12	-inf	
8.000000e-01	8.000000e-01	1.708221e-02	8.528300e-03	-4.311827e-10	-4.311827e-10	4.818713e+05	1.229890e+03	2.561051e-02	1.010058e+05	9.968501e+03	1.257068e+03	9.789535e-12	-inf	
1.000000e+00	8.000000e-01	1.708221e-02	8.528300e-03	-1.063712e-05	-4.311827e-10	4.818713e+05	1.229890e+03	2.561051e-02	1.010058e+05	9.968501e+03	1.257068e+03	1.707693e-07	-inf	
0.000000e+00	1.000000e+00	1.708221e-02	8.528300e-03	1.063712e-05	-1.063712e-05	4.818713e+05	1.229890e+03	2.561051e-02	1.010058e+05	9.968501e+03	1.257068e+03	2.415043e-07	-inf	
2.000000e-01	1.000000e+00	1.708221e-02	8.528300e-03	4.311827e-10	-1.063712e-05	4.818713e+05	1.229890e+03	2.561051e-02	1.010058e+05	9.968501e+03	1.257068e+03	1.707693e-07	-inf	
4.000000e-01	1.000000e+00	1.708221e-02	8.528300e-03	3.478939e-14	-1.063712e-05	4.818713e+05	1.229890e+03	2.561051e-02	1.010058e+05	9.968501e+03	1.257068e+03	1.707693e-07	-inf	
6.000000e-01	1.000000e+00	1.708221e-02	8.528300e-03	-3.478817e-14	-1.063712e-05	4.818713e+05	1.229890e+03	2.561051e-02	1.010058e+05	9.968501e+03	1.257068e+03	1.707693e-07	-inf	
8.000000e-01	1.000000e+00	1.708221e-02	8.528300e-03	-4.311827e-10	-1.063712e-05	4.818713e+05	1.229890e+03	2.561051e-02	1.010058e+05	9.968501e+03	1.257068e+03	1.707693e-07	-inf	
1.000000e+00	1.000000e+00	1.708221e-02	8.528300e-03	-1.063712e-05	-1.063712e-05	4.818713e+05	1.229890e+03	2.561051e-02	1.010058e+05	9.968501e+03	1.257068e+03	2.415043e-07	-inf	
1	2	8	7
2	3	9	8
3	4	10	9
4	5	11	10
5	6	12	11
7	8	14	13
8	9	15	14
9	10	16	15
10	11	17	16
11	12	18	17
13	14	20	19
14	15	21	20
15	16	22	21
16	17	23	22
17	18	24	23
19	20	26	25
20	21	27	26
21	22	28	27
22	23	29	28
23	24	30	29
25	26	32	31
26	27	33	32
27	28	34	33
28	29	35	34
29	30	36	35
